
units		metal
atom_style	atomic
boundary	p p p

lattice		fcc 3.61
Lattice spacing in x,y,z = 3.61 3.61 3.61
region		mycube block 0 6 0 6 0 6
create_box	1 mycube
Created orthogonal box = (0 0 0) to (21.66 21.66 21.66)
  1 by 1 by 1 MPI processor grid
create_atoms	1 box
Created 864 atoms
mass		1 63.55

pair_style	eam
pair_coeff	1 1 Cu_u3.eam

neighbor	0.3 bin
neigh_modify	every 10 delay 0 check yes

compute		ep all pe/atom
dump		mydump all custom 100 ${NAME}.dump type x y z c_ep
dump		mydump all custom 100 case1.dump type x y z c_ep

thermo		10
thermo_style	custom step temp pe etotal press vol
thermo_modify 	line one flush yes format 1 "ec %8lu" format float "%20.10g"

fix		MYFIX all nve
velocity	all create 300.0 87287
run		10000
Neighbor list info ...
  1 neighbor list requests
  update every 10 steps, delay 0 steps, check yes
  max neighbors/atom: 2000, page size: 100000
  master list distance cutoff = 5.25
  ghost atom cutoff = 5.25
  binsize = 2.625 -> bins = 9 9 9
Memory usage per processor = 4.32105 Mbytes
Step Temp PotEng TotEng Press Volume 
ec        0                  300         -3058.483704         -3025.018252          9321.096009           10161.9103 
ec       10          268.8083991         -3055.003057         -3025.017075          10760.75288           10161.9103 
ec       20           191.595911         -3046.386954         -3025.014142          14264.72655           10161.9103 
ec       30          108.9172385          -3037.16096         -3025.011078          17814.84137           10161.9103 
ec       40          61.67722657         -3031.890189         -3025.010002          19586.95802           10161.9103 
ec       50          64.81701392         -3032.241789         -3025.011354          19082.29958           10161.9103 
ec       60           100.798426         -3036.257907         -3025.013691          17201.76435           10161.9103 
ec       70            138.03422          -3040.41313         -3025.015205           15473.9012           10161.9103 
ec       80          155.0671658         -3042.313178         -3025.015202          14876.52788           10161.9103 
ec       90          151.3658112          -3041.89917         -3025.014086          15372.03364           10161.9103 
ec      100          141.7295106         -3040.823059         -3025.012919          16098.84646           10161.9103 
ec      110          141.8466388         -3040.835852         -3025.012646          16252.48935           10161.9103 
ec      120          155.8213157          -3042.39548         -3025.013378          15605.12189           10161.9103 
ec      130           174.113983         -3044.437143         -3025.014466          14645.81809           10161.9103 
ec      140          182.2764563         -3045.348269         -3025.015056          14161.66633           10161.9103 
ec      150           172.593715         -3044.267787         -3025.014698          14571.60836           10161.9103 
ec      160          150.1535137         -3041.763493         -3025.013642          15638.35501           10161.9103 
ec      170          129.3690065         -3039.443967          -3025.01266           16618.2021           10161.9103 
ec      180          123.4799603          -3038.78689         -3025.012515          16884.17055           10161.9103 
ec      190          134.6631356         -3040.035139         -3025.013264          16290.78304           10161.9103 
ec      200          152.9688461         -3042.078166         -3025.014261          15375.34033           10161.9103 
ec      210          164.8106207         -3043.399637         -3025.014764          14807.49185           10161.9103 
ec      220           163.113143         -3043.210005         -3025.014488          14940.04258           10161.9103 
ec      230            151.32489          -3041.89424         -3025.013721          15576.55362           10161.9103 
ec      240          139.7028511         -3040.597108         -3025.013045          16177.68688           10161.9103 
ec      250          137.2320434         -3040.321397         -3025.012956          16284.61787           10161.9103 
ec      260          145.1633961         -3041.206643         -3025.013447          15867.40414           10161.9103 
ec      270          156.7962998         -3042.504983         -3025.014119          15287.92979           10161.9103 
ec      280          163.0559332         -3043.203603         -3025.014468          14964.03173           10161.9103 
ec      290          159.4269542          -3042.79853         -3025.014213          15143.65866           10161.9103 
ec      300          149.2458457         -3041.662193         -3025.013594          15685.47549           10161.9103 
ec      310          140.7922592         -3040.718702         -3025.013114          16096.07079           10161.9103 
ec      320          140.6810166         -3040.706321         -3025.013142          16094.52538           10161.9103 
ec      330          148.8092831         -3041.613508         -3025.013609          15681.69066           10161.9103 
ec      340           158.648355         -3042.711643          -3025.01418          15178.27181           10161.9103 
ec      350          162.2509246         -3043.113781         -3025.014446          14995.57457           10161.9103 
ec      360          156.3019373         -3042.449875         -3025.014158          15276.76465           10161.9103 
ec      370           144.496927         -3041.132448         -3025.013599          15825.46301           10161.9103 
ec      380          134.5225205         -3040.019341         -3025.013152          16293.96095           10161.9103 
ec      390          132.4181159         -3039.784545         -3025.013105          16367.55089           10161.9103 
ec      400           138.798349         -3040.496599         -3025.013434          16032.31625           10161.9103 
ec      410          149.2068022         -3041.658144         -3025.013901          15558.99318           10161.9103 
ec      420          157.5978303         -3042.594454         -3025.014179          15221.78705           10161.9103 
ec      430          160.1621405         -3042.880488          -3025.01416          15168.19541           10161.9103 
ec      440          157.2139538         -3042.551334         -3025.013881          15366.04369           10161.9103 
ec      450          152.3120554         -3042.004231         -3025.013592          15622.11137           10161.9103 
ec      460          149.5145338         -3041.692057         -3025.013486          15739.44349           10161.9103 
ec      470           150.523048          -3041.80468         -3025.013607          15662.22871           10161.9103 
ec      480          153.8160345         -3042.172243         -3025.013833          15496.92884           10161.9103 
ec      490          156.2336482         -3042.442074         -3025.013975          15396.12862           10161.9103 
ec      500          155.6357921          -3042.37534         -3025.013933          15450.73133           10161.9103 
ec      510          152.5109298         -3042.026585         -3025.013761           15589.5913           10161.9103 
ec      520          149.2881472         -3041.666951         -3025.013634          15695.25777           10161.9103 
ec      530          148.0312953         -3041.526779         -3025.013666          15695.90083           10161.9103 
ec      540          148.6273931         -3041.593419         -3025.013809          15615.08468           10161.9103 
ec      550          149.0383309         -3041.639416         -3025.013966           15571.8503           10161.9103 
ec      560          147.2546348         -3041.440461         -3025.013985          15645.36091           10161.9103 
ec      570          143.3875566         -3041.008856         -3025.013758          15825.50839           10161.9103 
ec      580          139.9368818         -3040.623723         -3025.013553          15991.57979           10161.9103 
ec      590          139.7862112         -3040.606873         -3025.013511          16018.29217           10161.9103 
ec      600          143.8128539         -3041.056212         -3025.013672          15858.20912           10161.9103 
ec      610          150.1687361         -3041.765426         -3025.013878          15600.56244           10161.9103 
ec      620          155.8918289         -3042.403994         -3025.014026          15382.31907           10161.9103 
ec      630          159.0751589          -3042.75907         -3025.013997          15300.15848           10161.9103 
ec      640          159.7173266         -3042.830621         -3025.013913          15312.64779           10161.9103 
ec      650          158.9501886         -3042.744961         -3025.013828          15364.01769           10161.9103 
ec      660          157.7691504         -3042.613237         -3025.013851          15383.98241           10161.9103 
ec      670          156.1640473         -3042.434255          -3025.01392           15397.1637           10161.9103 
ec      680          153.3444633         -3042.119771         -3025.013966           15458.0903           10161.9103 
ec      690          148.7477947         -3041.606966         -3025.013925          15625.46011           10161.9103 
ec      700           143.065558         -3040.972956         -3025.013777          15865.22243           10161.9103 
ec      710          138.4216879         -3040.454746         -3025.013598          16069.16978           10161.9103 
ec      720          137.3470406         -3040.334762         -3025.013493          16133.43077           10161.9103 
ec      730          140.9799167         -3040.740139         -3025.013617          15990.38393           10161.9103 
ec      740          147.8247233         -3041.503939         -3025.013868           15699.4862           10161.9103 
ec      750          154.6462077         -3042.265096         -3025.014079          15408.63632           10161.9103 
ec      760           158.540347         -3042.699592         -3025.014178          15239.20567           10161.9103 
ec      770          158.2896722         -3042.671585         -3025.014134          15238.25632           10161.9103 
ec      780           154.551821         -3042.254484         -3025.013996           15400.8183           10161.9103 
ec      790          149.3074623         -3041.669306         -3025.013834          15621.19282           10161.9103 
ec      800           144.998085         -3041.188434          -3025.01368          15790.39015           10161.9103 
ec      810          143.4607133         -3041.016924         -3025.013665          15838.70687           10161.9103 
ec      820          144.9188239         -3041.179679         -3025.013766          15766.26678           10161.9103 
ec      830          147.7308427         -3041.493546         -3025.013948          15638.49447           10161.9103 
ec      840          149.4694823         -3041.687593         -3025.014048          15589.24535           10161.9103 
ec      850          148.8240389         -3041.615529         -3025.013983           15648.9673           10161.9103 
ec      860          146.7731798          -3041.38655         -3025.013781          15777.06006           10161.9103 
ec      870          145.9263335         -3041.291932          -3025.01363            15842.222           10161.9103 
ec      880          148.2576872         -3041.552025         -3025.013657          15728.64482           10161.9103 
ec      890          153.1931358         -3042.102797         -3025.013872          15499.93434           10161.9103 
ec      900          157.7445858         -3042.610788         -3025.014142          15293.44382           10161.9103 
ec      910          158.6219935         -3042.708738         -3025.014216          15243.09161           10161.9103 
ec      920          154.7466899         -3042.276265         -3025.014039          15436.14327           10161.9103 
ec      930          148.3842712          -3041.56618         -3025.013692          15758.72268           10161.9103 
ec      940          143.8776191         -3041.063206         -3025.013441          15999.55772           10161.9103 
ec      950          144.6168931         -3041.145678         -3025.013445          15995.27142           10161.9103 
ec      960          150.4870799         -3041.800796         -3025.013736          15723.51698           10161.9103 
ec      970           157.692883         -3042.604983         -3025.014104          15335.39303           10161.9103 
ec      980          161.1928849         -3042.995615         -3025.014306          15112.42989           10161.9103 
ec      990          158.0535169         -3042.645331         -3025.014224          15217.74875           10161.9103 
ec     1000          149.4963794         -3041.690412         -3025.013865          15611.37946           10161.9103 
ec     1010          140.5722961         -3040.694504         -3025.013453          16049.18211           10161.9103 
ec     1020          137.1279998           -3040.3101         -3025.013265          16227.47764           10161.9103 
ec     1030          141.7180255         -3040.822344         -3025.013485          16008.00413           10161.9103 
ec     1040          151.3565058         -3041.898031         -3025.013985          15550.20813           10161.9103 
ec     1050          159.3236245         -3042.787182         -3025.014392          15163.53054           10161.9103 
ec     1060          159.9979024          -3042.86242         -3025.014413          15114.22086           10161.9103 
ec     1070          152.8149054         -3042.060809         -3025.014076          15465.41855           10161.9103 
ec     1080          142.5096851         -3040.910721         -3025.013551          15973.22856           10161.9103 
ec     1090          136.2395191         -3040.210888         -3025.013165           16299.6459           10161.9103 
ec     1100           139.111802         -3040.531349         -3025.013218          16170.05578           10161.9103 
ec     1110          150.3235763         -3041.782546         -3025.013725          15653.17379           10161.9103 
ec     1120          163.0733898          -3043.20541         -3025.014328          15033.69353           10161.9103 
ec     1130          169.0688095           -3043.8745          -3025.01462           14742.1961           10161.9103 
ec     1140          164.3291839          -3043.34557         -3025.014402           14960.6533           10161.9103 
ec     1150          151.8901215          -3041.95739         -3025.013818          15563.78943           10161.9103 
ec     1160          139.5310546         -3040.578182         -3025.013283          16140.54338           10161.9103 
ec     1170          134.2653545         -3039.990654         -3025.013152          16366.42876           10161.9103 
ec     1180          137.8766249         -3040.393777         -3025.013432          16162.00963           10161.9103 
ec     1190          146.4783302         -3041.353738         -3025.013859          15726.99163           10161.9103 
ec     1200           153.908555         -3042.182892         -3025.014161          15358.07047           10161.9103 
ec     1210          155.9184996         -3042.407099         -3025.014156          15262.57117           10161.9103 
ec     1220          152.4417165         -3042.018983          -3025.01388          15468.22613           10161.9103 
ec     1230          147.1525212         -3041.428635          -3025.01355          15768.28895           10161.9103 
ec     1240           144.666654         -3041.151178         -3025.013395          15918.51094           10161.9103 
ec     1250          147.1526577         -3041.428628         -3025.013528          15789.55668           10161.9103 
ec     1260          152.8012772         -3042.059066         -3025.013853          15512.13338           10161.9103 
ec     1270          157.5126557         -3042.584851         -3025.014078          15272.74474           10161.9103 
ec     1280          158.2198131         -3042.663744         -3025.014085          15238.12936           10161.9103 
ec     1290          154.9143298         -3042.294822         -3025.013895           15405.0813           10161.9103 
ec     1300           150.000652         -3041.746499         -3025.013701          15653.49505           10161.9103 
ec     1310          146.0850696         -3041.309638         -3025.013629          15819.96987           10161.9103 
ec     1320          144.2642575          -3041.10654         -3025.013645          15852.64186           10161.9103 
ec     1330          144.0696226         -3041.084923          -3025.01374          15814.33335           10161.9103 
ec     1340          144.4584628         -3041.128333         -3025.013774          15761.92125           10161.9103 
ec     1350          145.0197798         -3041.190934         -3025.013759          15733.13649           10161.9103 
ec     1360          146.2468916         -3041.327768         -3025.013707          15715.51005           10161.9103 
ec     1370            148.83826         -3041.616834         -3025.013702          15655.49684           10161.9103 
ec     1380          152.9182788         -3042.072018         -3025.013754          15530.94234           10161.9103 
ec     1390          157.6142262         -3042.595985         -3025.013881          15335.56697           10161.9103 
ec     1400          161.0346115         -3042.977691         -3025.014038          15168.26876           10161.9103 
ec     1410          160.8389743         -3042.955938         -3025.014108          15136.12916           10161.9103 
ec     1420           155.791306         -3042.392744         -3025.013989           15337.6164           10161.9103 
ec     1430          147.1501249         -3041.428551         -3025.013733          15686.24237           10161.9103 
ec     1440          138.4620353         -3040.459109          -3025.01346          16063.03193           10161.9103 
ec     1450          133.6383363         -3039.920862         -3025.013305          16276.52489           10161.9103 
ec     1460          134.7756835         -3040.047798         -3025.013368          16206.13526           10161.9103 
ec     1470          141.0222688         -3040.744859         -3025.013613          15935.13757           10161.9103 
ec     1480          149.2906439         -3041.667451         -3025.013855          15594.92057           10161.9103 
ec     1490          156.1623431         -3042.434119         -3025.013974          15331.33191           10161.9103 
ec     1500          159.6648882         -3042.824806         -3025.013948          15223.44222           10161.9103 
ec     1510          159.8388547         -3042.844087         -3025.013823          15264.06485           10161.9103 
ec     1520          158.1476297         -3042.655278         -3025.013672          15371.05032           10161.9103 
ec     1530          156.1626519         -3042.433822         -3025.013643          15458.74802           10161.9103 
ec     1540          154.5810109         -3042.257425         -3025.013681          15507.94977           10161.9103 
ec     1550          153.2146365         -3042.105029         -3025.013706          15536.21196           10161.9103 
ec     1560          151.8642005         -3041.954373         -3025.013693          15561.60667           10161.9103 
ec     1570          150.9910367         -3041.856911         -3025.013633          15576.82115           10161.9103 
ec     1580          151.0310173         -3041.861433         -3025.013696          15550.25893           10161.9103 
ec     1590           151.326475         -3041.894511         -3025.013815          15514.04599           10161.9103 
ec     1600          150.4547219         -3041.797367         -3025.013917          15532.79776           10161.9103 
ec     1610           147.680289         -3041.487823         -3025.013865          15626.04342           10161.9103 
ec     1620          143.8853288          -3041.06434         -3025.013715          15793.52385           10161.9103 
ec     1630          141.2014838         -3040.764836         -3025.013598          15892.62482           10161.9103 
ec     1640          141.3957496         -3040.786514         -3025.013606          15896.89734           10161.9103 
ec     1650          144.5514382         -3041.138673         -3025.013743          15768.29408           10161.9103 
ec     1660          148.9822958         -3041.633095         -3025.013895          15597.99871           10161.9103 
ec     1670          152.5389877         -3042.029965         -3025.014011          15467.51369           10161.9103 
ec     1680          154.0409154         -3042.197483         -3025.013987          15432.68977           10161.9103 
ec     1690          153.6368471         -3042.152353         -3025.013932          15470.27589           10161.9103 
ec     1700          152.2307009         -3041.995421         -3025.013857          15535.27147           10161.9103 
ec     1710          150.7670136         -3041.832115         -3025.013828          15587.02287           10161.9103 
ec     1720          149.6413714         -3041.706583         -3025.013863          15631.42287           10161.9103 
ec     1730           148.642728         -3041.595214         -3025.013894          15652.81478           10161.9103 
ec     1740          147.4749679         -3041.464948         -3025.013894          15673.47841           10161.9103 
ec     1750          146.5120878         -3041.357439         -3025.013795          15695.93022           10161.9103 
ec     1760          146.6704829         -3041.375075         -3025.013762          15668.46342           10161.9103 
ec     1770          148.2533163         -3041.551709         -3025.013828          15594.51017           10161.9103 
ec     1780          150.3188768         -3041.782232         -3025.013935          15511.64566           10161.9103 
ec     1790          151.3284906         -3041.894937         -3025.014016           15471.4402           10161.9103 
ec     1800          150.4400313         -3041.795754         -3025.013942           15533.0192           10161.9103 
ec     1810          148.3899512         -3041.566904         -3025.013782          15685.75435           10161.9103 
ec     1820           147.171662         -3041.430867         -3025.013647            15760.044           10161.9103 
ec     1830          148.4551933         -3041.574037         -3025.013637          15726.62183           10161.9103 
ec     1840           152.060923         -3041.976439         -3025.013815          15569.81847           10161.9103 
ec     1850           155.829334         -3042.397007         -3025.014011          15373.04693           10161.9103 
ec     1860          157.0864489         -3042.537369          -3025.01414          15289.29296           10161.9103 
ec     1870          154.3053924           -3042.2271         -3025.014101          15375.05807           10161.9103 
ec     1880          148.3016946         -3041.557128          -3025.01385          15630.26585           10161.9103 
ec     1890          142.2778989         -3040.884915         -3025.013601           15901.3018           10161.9103 
ec     1900          140.0214658         -3040.633072         -3025.013467          15994.00711           10161.9103 
ec     1910          143.1876089         -3040.986384          -3025.01359          15868.80008           10161.9103 
ec     1920          149.9214901         -3041.737846         -3025.013878          15593.24055           10161.9103 
ec     1930          156.0724163         -3042.424256         -3025.014143          15322.89205           10161.9103 
ec     1940          158.2553593         -3042.667765         -3025.014142          15242.24789           10161.9103 
ec     1950          156.3292528         -3042.452681         -3025.013917          15355.05321           10161.9103 
ec     1960          152.9745907         -3042.078262         -3025.013716          15542.46105           10161.9103 
ec     1970          150.9860691         -3041.856408         -3025.013685          15649.84469           10161.9103 
ec     1980          151.0444399          -3041.86301         -3025.013775          15628.01983           10161.9103 
ec     1990          151.9358478         -3041.962561         -3025.013888          15563.33972           10161.9103 
ec     2000          152.2391286         -3041.996425         -3025.013921          15526.05223           10161.9103 
ec     2010          151.5849245         -3041.923369         -3025.013842          15540.73814           10161.9103 
ec     2020           150.586299         -3041.811925         -3025.013797          15559.73569           10161.9103 
ec     2030          149.7341092         -3041.716878         -3025.013812          15591.93081           10161.9103 
ec     2040          148.7409715         -3041.606182         -3025.013902           15602.5328           10161.9103 
ec     2050          146.9865939          -3041.41047         -3025.013894          15643.26514           10161.9103 
ec     2060          144.3774172         -3041.119368         -3025.013849          15719.77951           10161.9103 
ec     2070          141.7269135         -3040.823587         -3025.013736          15830.19584           10161.9103 
ec     2080          140.5466503         -3040.691795         -3025.013604          15918.68398           10161.9103 
ec     2090          142.1492532         -3040.870569         -3025.013606          15872.15856           10161.9103 
ec     2100          146.6334874         -3041.370908         -3025.013722          15697.32141           10161.9103 
ec     2110          152.5399386         -3042.029973         -3025.013913          15472.70193           10161.9103 
ec     2120          157.3506341         -3042.566773         -3025.014073          15275.28067           10161.9103 
ec     2130          158.7723247           -3042.7254         -3025.014109          15221.97665           10161.9103 
ec     2140          156.4081854         -3042.461524         -3025.013956          15352.21366           10161.9103 
ec     2150            152.29159         -3042.002095         -3025.013739          15544.52945           10161.9103 
ec     2160          149.2303251         -3041.660533         -3025.013666          15676.53544           10161.9103 
ec     2170          148.4680715         -3041.575586         -3025.013749          15706.85742           10161.9103 
ec     2180          149.0588631         -3041.641627         -3025.013887          15651.17862           10161.9103 
ec     2190          149.4577269          -3041.68616         -3025.013926           15600.6584           10161.9103 
ec     2200          149.2653097         -3041.664628         -3025.013858           15600.0934           10161.9103 
ec     2210          149.4048908          -3041.68011          -3025.01377          15615.73904           10161.9103 
ec     2220          151.0329723         -3041.861705         -3025.013749          15588.13072           10161.9103 
ec     2230          154.3774597         -3042.234866         -3025.013828          15475.40317           10161.9103 
ec     2240          158.3115662         -3042.673874         -3025.013981          15283.61381           10161.9103 
ec     2250          160.5552333         -3042.924326         -3025.014148          15136.58193           10161.9103 
ec     2260          158.6348804          -3042.71017          -3025.01421          15155.74929           10161.9103 
ec     2270          151.5588715         -3041.920706         -3025.014086          15399.32838           10161.9103 
ec     2280          141.1876912         -3040.763468         -3025.013768          15829.55502           10161.9103 
ec     2290          131.7937551         -3039.715197         -3025.013405          16232.32059           10161.9103 
ec     2300          127.8515832         -3039.275265         -3025.013228          16426.88685           10161.9103 
ec     2310          131.4829584         -3039.680435         -3025.013314          16300.48864           10161.9103 
ec     2320          141.2482248         -3040.770063         -3025.013611          15913.48715           10161.9103 
ec     2330          153.0839025         -3042.090664         -3025.013924          15434.48133           10161.9103 
ec     2340          162.5386145         -3043.145518         -3025.014091          15067.58186           10161.9103 
ec     2350          166.6711195         -3043.606511         -3025.014096          14913.29212           10161.9103 
ec     2360          164.8115666         -3043.398993         -3025.014015           15016.3281           10161.9103 
ec     2370          158.4622905         -3042.690506         -3025.013799          15306.10838           10161.9103 
ec     2380          150.6215313         -3041.815618         -3025.013559          15607.99555           10161.9103 
ec     2390          144.4171479         -3041.123382         -3025.013432           15842.4931           10161.9103 
ec     2400          141.7686866         -3040.827926         -3025.013415          15920.56475           10161.9103 
ec     2410          142.7475086          -3040.93719         -3025.013491          15855.58511           10161.9103 
ec     2420           146.072255         -3041.308178         -3025.013598          15726.53883           10161.9103 
ec     2430           150.156393          -3041.76388         -3025.013708           15566.5787           10161.9103 
ec     2440          153.6540687         -3042.154151         -3025.013809          15443.18401           10161.9103 
ec     2450          155.5331424         -3042.363833         -3025.013877          15368.39092           10161.9103 
ec     2460           155.142481         -3042.320259         -3025.013882          15380.87125           10161.9103 
ec     2470          152.5548434         -3042.031542          -3025.01382          15484.04921           10161.9103 
ec     2480          148.9650458         -3041.630977         -3025.013702           15632.8901           10161.9103 
ec     2490          146.2948465         -3041.333008         -3025.013598          15738.70437           10161.9103 
ec     2500          145.9320373         -3041.292554         -3025.013615          15753.17078           10161.9103 
ec     2510          147.6256287         -3041.481593         -3025.013732          15685.46781           10161.9103 
ec     2520          149.8599587         -3041.730942         -3025.013838          15584.14696           10161.9103 
ec     2530          151.3655703         -3041.898893         -3025.013836          15538.93839           10161.9103 
ec     2540          152.0822601         -3041.978788         -3025.013783          15528.94018           10161.9103 
ec     2550          152.7444547         -3042.052622         -3025.013748          15520.83352           10161.9103 
ec     2560          153.7664419         -3042.166664         -3025.013786          15464.79079           10161.9103 
ec     2570          154.3946258         -3042.236865         -3025.013912          15397.22012           10161.9103 
ec     2580          153.2084701         -3042.104612         -3025.013976          15423.72138           10161.9103 
ec     2590          149.6481047         -3041.707349         -3025.013878          15569.45971           10161.9103 
ec     2600          144.9880621         -3041.187333         -3025.013697          15778.45837           10161.9103 
ec     2610           141.624568         -3040.811998         -3025.013564           15938.9847           10161.9103 
ec     2620          141.4024621         -3040.787188          -3025.01353          15950.68196           10161.9103 
ec     2630          144.5075128         -3041.133672         -3025.013642          15840.90749           10161.9103 
ec     2640          149.4569539         -3041.685963         -3025.013815           15628.2813           10161.9103 
ec     2650          154.0933931         -3042.203291         -3025.013941          15427.12864           10161.9103 
ec     2660          156.8460585         -3042.510384          -3025.01397          15316.35412           10161.9103 
ec     2670            157.49302          -3042.58249         -3025.013907           15310.3911           10161.9103 
ec     2680          156.7105171         -3042.495164          -3025.01387          15365.31903           10161.9103 
ec     2690          155.1443448         -3042.320461         -3025.013875          15433.40702           10161.9103 
ec     2700            153.01401         -3042.082813          -3025.01387           15497.9238           10161.9103 
ec     2710          150.3887789         -3041.789962         -3025.013868          15566.68638           10161.9103 
ec     2720          147.4832992         -3041.465791         -3025.013807          15647.14938           10161.9103 
ec     2730          144.9093763         -3041.178587         -3025.013728          15738.45963           10161.9103 
ec     2740          143.5173683         -3041.023282         -3025.013703          15760.22779           10161.9103 
ec     2750          143.8632029         -3041.061862         -3025.013706          15774.80564           10161.9103 
ec     2760          145.7347574         -3041.270687         -3025.013755          15719.67849           10161.9103 
ec     2770          148.2565256         -3041.552075         -3025.013837          15618.64524           10161.9103 
ec     2780          150.2946888         -3041.779506         -3025.013907           15529.2259           10161.9103 
ec     2790           150.852269          -3041.84172         -3025.013922          15505.58936           10161.9103 
ec     2800          149.5302182         -3041.694215         -3025.013894          15575.40976           10161.9103 
ec     2810           147.071443          -3041.41981         -3025.013769          15695.57239           10161.9103 
ec     2820          145.3048205         -3041.222597         -3025.013626          15799.92649           10161.9103 
ec     2830          146.1211224         -3041.313632         -3025.013601          15784.52796           10161.9103 
ec     2840          150.0736522         -3041.754666         -3025.013724          15628.61679           10161.9103 
ec     2850          155.5551266         -3042.366365         -3025.013957           15387.9141           10161.9103 
ec     2860          159.3963397         -3042.795043         -3025.014141          15214.43511           10161.9103 
ec     2870          159.0344124          -3042.75469         -3025.014162          15222.70196           10161.9103 
ec     2880          154.6110024         -3042.261031         -3025.013941          15445.88359           10161.9103 
ec     2890          149.1545651           -3041.6521         -3025.013684          15690.14086           10161.9103 
ec     2900          146.2942168         -3041.332932         -3025.013591          15806.20292           10161.9103 
ec     2910          147.5095027         -3041.468628         -3025.013721           15705.6866           10161.9103 
ec     2920          151.2052338         -3041.881129         -3025.013957          15495.22063           10161.9103 
ec     2930          154.0536343         -3042.199078         -3025.014164          15331.76713           10161.9103 
ec     2940          153.3418434         -3042.119682         -3025.014169          15366.68969           10161.9103 
ec     2950          148.9273223         -3041.627045         -3025.013978          15590.10007           10161.9103 
ec     2960           143.388135         -3041.008859         -3025.013697          15872.32718           10161.9103 
ec     2970          140.3240715         -3040.666917         -3025.013556          16017.05573           10161.9103 
ec     2980          141.7637925         -3040.827573         -3025.013609          15942.98628           10161.9103 
ec     2990          146.8046214         -3041.390127          -3025.01385          15697.28489           10161.9103 
ec     3000          152.2186732         -3041.994276         -3025.014054          15450.23323           10161.9103 
ec     3010          154.7878829         -3042.280929         -3025.014108          15338.66365           10161.9103 
ec     3020          153.7520904         -3042.165198         -3025.013921          15424.49893           10161.9103 
ec     3030          151.3564142         -3041.897691         -3025.013655          15571.59723           10161.9103 
ec     3040          150.5668917         -3041.809522         -3025.013559          15612.21175           10161.9103 
ec     3050          152.1723677         -3041.988791         -3025.013735          15530.90186           10161.9103 
ec     3060          154.0847914         -3042.202353         -3025.013962          15418.25035           10161.9103 
ec     3070          153.4534246         -3042.131968         -3025.014007           15414.8625           10161.9103 
ec     3080          149.5976641         -3041.701675         -3025.013831           15586.6308           10161.9103 
ec     3090          144.9402788         -3041.181865         -3025.013559          15831.97028           10161.9103 
ec     3100          143.2398665         -3040.992011         -3025.013389          15944.58697           10161.9103 
ec     3110          146.5945897         -3041.366361         -3025.013514           15813.0348           10161.9103 
ec     3120           153.523391         -3042.139585          -3025.01382          15499.98949           10161.9103 
ec     3130          159.8947983         -3042.850589         -3025.014083           15208.7791           10161.9103 
ec     3140          161.9361939         -3043.078358         -3025.014132          15084.26025           10161.9103 
ec     3150          158.5643502         -3042.702077         -3025.013985          15225.22656           10161.9103 
ec     3160          151.5728448         -3041.921913         -3025.013734          15520.88961           10161.9103 
ec     3170          144.3919605          -3041.12063          -3025.01349          15816.42036           10161.9103 
ec     3180          140.3424729         -3040.668802         -3025.013388          15966.31344           10161.9103 
ec     3190          140.8382846         -3040.724256         -3025.013533          15911.45597           10161.9103 
ec     3200          144.4122322         -3041.123158         -3025.013756          15730.21921           10161.9103 
ec     3210          147.8078303         -3041.502124         -3025.013939          15563.66156           10161.9103 
ec     3220          148.5664001         -3041.586745         -3025.013939          15538.96787           10161.9103 
ec     3230          146.7841953         -3041.387738         -3025.013741          15651.14257           10161.9103 
ec     3240          144.6497975         -3041.149501         -3025.013598          15771.19299           10161.9103 
ec     3250          144.5389073         -3041.137086         -3025.013553           15793.3389           10161.9103 
ec     3260          147.1373888         -3041.427063         -3025.013665          15689.88114           10161.9103 
ec     3270          151.2327142         -3041.884063         -3025.013827           15518.8576           10161.9103 
ec     3280          154.8092005         -3042.283145         -3025.013946          15378.94286           10161.9103 
ec     3290          156.3973086         -3042.460353         -3025.013998          15330.13971           10161.9103 
ec     3300          155.5252474         -3042.363009         -3025.013933          15365.98818           10161.9103 
ec     3310          152.7874397         -3042.057544         -3025.013875          15475.83775           10161.9103 
ec     3320          149.5576298         -3041.697144         -3025.013765          15604.62849           10161.9103 
ec     3330          147.4216933         -3041.458818         -3025.013707          15674.63405           10161.9103 
ec     3340          147.2469318          -3041.43935         -3025.013734          15674.59252           10161.9103 
ec     3350          148.5408173         -3041.583808         -3025.013856           15626.0747           10161.9103 
ec     3360          149.9491458         -3041.740988         -3025.013935          15591.02491           10161.9103 
ec     3370          150.6962871          -3041.82425         -3025.013852          15581.08779           10161.9103 
ec     3380          151.1614507         -3041.876104         -3025.013816          15553.97493           10161.9103 
ec     3390          151.9882087         -3041.968334         -3025.013821          15499.60602           10161.9103 
ec     3400          152.8695911         -3042.066744         -3025.013911          15444.74674           10161.9103 
ec     3410          152.3993656         -3042.014403         -3025.014024          15437.24364           10161.9103 
ec     3420          149.3842531         -3041.678033         -3025.013995          15567.76096           10161.9103 
ec     3430          144.7147216         -3041.156923         -3025.013778          15795.70658           10161.9103 
ec     3440          141.4951056          -3040.79754         -3025.013548          15959.24317           10161.9103 
ec     3450          142.8388755         -3040.947414         -3025.013523          15930.59919           10161.9103 
ec     3460          149.1011761         -3041.646215         -3025.013755          15661.09087           10161.9103 
ec     3470          157.2584569         -3042.556491         -3025.014074          15305.53017           10161.9103 
ec     3480          162.9430444         -3043.190846         -3025.014304          15068.05608           10161.9103 
ec     3490          163.1301135         -3043.211704         -3025.014294          15062.66009           10161.9103 
ec     3500          157.8014412         -3042.617081         -3025.014092          15306.17539           10161.9103 
ec     3510          149.8204037         -3041.726488         -3025.013797          15656.85048           10161.9103 
ec     3520           143.211094         -3040.988992         -3025.013579          15925.55314           10161.9103 
ec     3530          140.8077139         -3040.720877         -3025.013565          15978.80139           10161.9103 
ec     3540          142.8291493         -3040.946564         -3025.013757          15845.35226           10161.9103 
ec     3550           147.038119         -3041.416329         -3025.014006          15619.70453           10161.9103 
ec     3560          150.3529711         -3041.786249         -3025.014149          15473.43069           10161.9103 
ec     3570          150.8572006         -3041.842427          -3025.01408          15503.38506           10161.9103 
ec     3580          148.9553877         -3041.630109         -3025.013911          15609.54165           10161.9103 
ec     3590          146.8971534         -3041.400315         -3025.013716           15722.9173           10161.9103 
ec     3600          146.9084233         -3041.401543         -3025.013687          15721.50023           10161.9103 
ec     3610          149.3456654         -3041.673515         -3025.013782          15590.92637           10161.9103 
ec     3620          152.6955051          -3042.04735         -3025.013936           15467.7462           10161.9103 
ec     3630          154.9558616         -3042.299573         -3025.014013          15384.34112           10161.9103 
ec     3640          155.0208918         -3042.306805         -3025.013991          15421.22955           10161.9103 
ec     3650          153.1918288         -3042.102669          -3025.01389           15538.7837           10161.9103 
ec     3660          150.7331933          -3041.82831         -3025.013795          15634.23096           10161.9103 
ec     3670          148.8826505         -3041.621844          -3025.01376          15684.72211           10161.9103 
ec     3680          148.0413819         -3041.528032         -3025.013793          15650.07303           10161.9103 
ec     3690           147.540394         -3041.472214         -3025.013861          15607.37112           10161.9103 
ec     3700          146.3357843         -3041.337877           -3025.0139          15650.38129           10161.9103 
ec     3710          144.2834262         -3041.108838         -3025.013805          15727.97716           10161.9103 
ec     3720          142.8622638         -3040.950119         -3025.013618          15829.00188           10161.9103 
ec     3730          144.1809096         -3041.097139         -3025.013542          15824.81769           10161.9103 
ec     3740          148.9756555          -3041.63214         -3025.013682          15652.83815           10161.9103 
ec     3750          155.2954295         -3042.337384         -3025.013945          15378.28202           10161.9103 
ec     3760          159.4992896         -3042.806535         -3025.014149          15214.11557           10161.9103 
ec     3770          159.1737828         -3042.770152         -3025.014077          15243.01234           10161.9103 
ec     3780           155.227194         -3042.329662         -3025.013835          15419.49918           10161.9103 
ec     3790            151.08429         -3041.867291         -3025.013611          15604.28755           10161.9103 
ec     3800          149.7093831         -3041.713898         -3025.013591          15649.58369           10161.9103 
ec     3810          151.2290084          -3041.88361         -3025.013786          15555.24387           10161.9103 
ec     3820          153.2077152         -3042.104543         -3025.013992          15451.19134           10161.9103 
ec     3830          152.9219358         -3042.072706         -3025.014034          15423.71602           10161.9103 
ec     3840          149.5623937         -3041.697826         -3025.013916          15550.80966           10161.9103 
ec     3850          144.7712203         -3041.163161         -3025.013714          15744.85788           10161.9103 
ec     3860           141.321784         -3040.778247          -3025.01359          15903.99869           10161.9103 
ec     3870          141.0790947         -3040.751211         -3025.013626          15919.35811           10161.9103 
ec     3880          143.6317033         -3041.036089         -3025.013756          15799.58747           10161.9103 
ec     3890          146.9484742         -3041.406193         -3025.013869          15660.07173           10161.9103 
ec     3900          149.1935972         -3041.656649         -3025.013878          15586.94593           10161.9103 
ec     3910          149.9186346         -3041.737458         -3025.013809          15617.42992           10161.9103 
ec     3920          149.9645964          -3041.74248         -3025.013703          15678.28115           10161.9103 
ec     3930          150.6519703         -3041.819094          -3025.01364          15692.76321           10161.9103 
ec     3940          152.8304505         -3042.062111         -3025.013644          15596.42543           10161.9103 
ec     3950          156.1955334         -3042.437607          -3025.01376          15414.69686           10161.9103 
ec     3960          159.1505239         -3042.767402         -3025.013922          15255.00935           10161.9103 
ec     3970          159.5408044          -3042.81104         -3025.014023          15204.06005           10161.9103 
ec     3980           156.150578         -3042.432828         -3025.013996          15316.36678           10161.9103 
ec     3990          149.7130003          -3041.71452         -3025.013809          15565.18237           10161.9103 
ec     4000          142.7231309         -3040.934613         -3025.013633          15843.93732           10161.9103 
ec     4010          138.1006038         -3040.418828         -3025.013498          16023.79819           10161.9103 
ec     4020          137.5958348         -3040.362541         -3025.013519          16034.61503           10161.9103 
ec     4030          141.0515607         -3040.748148         -3025.013634          15907.13082           10161.9103 
ec     4040          146.9474182         -3041.405953         -3025.013748          15697.58837           10161.9103 
ec     4050          153.3553196         -3042.120857          -3025.01384          15477.89133           10161.9103 
ec     4060          158.5958256         -3042.705529         -3025.013926          15294.09996           10161.9103 
ec     4070          161.5590053         -3043.036147         -3025.013997          15198.45989           10161.9103 
ec     4080           161.617113         -3043.042644         -3025.014012          15189.58896           10161.9103 
ec     4090          158.6001082         -3042.706086         -3025.014005          15315.01549           10161.9103 
ec     4100          153.1780012         -3042.101104         -3025.013868          15507.18135           10161.9103 
ec     4110          147.0200926         -3041.414043          -3025.01373          15719.53123           10161.9103 
ec     4120           142.207528         -3040.877074          -3025.01361          15873.58804           10161.9103 
ec     4130          140.3059946         -3040.664908         -3025.013563          15911.30785           10161.9103 
ec     4140          141.7546849         -3040.826566         -3025.013617          15851.56879           10161.9103 
ec     4150          145.6770973         -3041.264261         -3025.013762          15707.26748           10161.9103 
ec     4160           150.296768         -3041.779696         -3025.013865          15542.45653           10161.9103 
ec     4170          153.9435319         -3042.186557         -3025.013924          15422.73154           10161.9103 
ec     4180          155.7788545         -3042.391251         -3025.013885          15370.04306           10161.9103 
ec     4190          155.7759255          -3042.39094         -3025.013901          15371.58006           10161.9103 
ec     4200          154.2818226          -3042.22423         -3025.013861           15433.9032           10161.9103 
ec     4210          151.7766514          -3041.94472         -3025.013806          15525.90834           10161.9103 
ec     4220          148.7812875         -3041.610519         -3025.013742          15621.02951           10161.9103 
ec     4230          145.9232475         -3041.291644         -3025.013686          15758.10321           10161.9103 
ec     4240           144.123141         -3041.090749         -3025.013595          15827.89625           10161.9103 
ec     4250          144.4383471         -3041.125876         -3025.013561          15807.28367           10161.9103 
ec     4260          147.1380434          -3041.42713          -3025.01366          15669.90371           10161.9103 
ec     4270           150.836055         -3041.839804         -3025.013815            15506.823           10161.9103 
ec     4280          153.2136596          -3042.10514         -3025.013926          15416.32238           10161.9103 
ec     4290          152.8422174         -3042.063682         -3025.013902          15417.71643           10161.9103 
ec     4300          150.1138021          -3041.75919         -3025.013769           15550.0211           10161.9103 
ec     4310          146.7894602         -3041.388237         -3025.013652          15706.28386           10161.9103 
ec     4320          144.7840552         -3041.164457         -3025.013578          15789.99797           10161.9103 
ec     4330          144.9788946         -3041.186232         -3025.013618          15774.63856           10161.9103 
ec     4340          146.9006981         -3041.400686         -3025.013692          15693.13787           10161.9103 
ec     4350          149.3184292         -3041.670448         -3025.013752          15593.96361           10161.9103 
ec     4360           151.163751         -3041.876294          -3025.01375          15543.23891           10161.9103 
ec     4370          152.0655792         -3041.976863         -3025.013719          15537.98366           10161.9103 
ec     4380          152.4250341         -3042.016925         -3025.013683            15549.739           10161.9103 
ec     4390           153.083538         -3042.090342         -3025.013642          15561.33026           10161.9103 
ec     4400          154.6053475         -3042.260145         -3025.013685          15497.49316           10161.9103 
ec     4410          156.6235975         -3042.485371         -3025.013773          15412.48494           10161.9103 
ec     4420          157.9684877         -3042.635451         -3025.013829          15326.28864           10161.9103 
ec     4430          157.4932133         -3042.582446         -3025.013841          15311.60947           10161.9103 
ec     4440          154.9148476         -3042.294784           -3025.0138          15384.10963           10161.9103 
ec     4450          150.7989154         -3041.835569         -3025.013723          15533.10897           10161.9103 
ec     4460          146.1048206         -3041.311871         -3025.013659          15699.63864           10161.9103 
ec     4470          141.9215004         -3040.845158         -3025.013601          15845.26681           10161.9103 
ec     4480          139.3731662         -3040.560818         -3025.013532          15955.33162           10161.9103 
ec     4490          139.3221976         -3040.555118         -3025.013517          15975.04128           10161.9103 
ec     4500           141.909368         -3040.843797         -3025.013593           15879.0006           10161.9103 
ec     4510          146.2539181         -3041.328547         -3025.013702          15715.90463           10161.9103 
ec     4520          150.7085593         -3041.825568         -3025.013801          15537.49302           10161.9103 
ec     4530          153.6548281         -3042.154279         -3025.013852          15432.00303           10161.9103 
ec     4540          154.5068313         -3042.249267         -3025.013797          15406.09929           10161.9103 
ec     4550          153.9295123         -3042.184755         -3025.013686          15463.22233           10161.9103 
ec     4560          152.9971468         -3042.080705         -3025.013643          15507.83996           10161.9103 
ec     4570          152.2368959         -3041.995893         -3025.013638          15530.47689           10161.9103 
ec     4580          151.6276565         -3041.927933          -3025.01364          15534.35992           10161.9103 
ec     4590          151.1487226         -3041.874492         -3025.013624          15550.98569           10161.9103 
ec     4600          151.0128898         -3041.859306          -3025.01359          15564.38971           10161.9103 
ec     4610          151.4078641          -3041.90339         -3025.013615          15545.61656           10161.9103 
ec     4620          152.0755576         -3041.977946         -3025.013688          15512.85158           10161.9103 
ec     4630          152.0998761         -3041.980748         -3025.013778          15511.62296           10161.9103 
ec     4640          150.6009513         -3041.813522         -3025.013759          15584.50123           10161.9103 
ec     4650          147.8488871         -3041.506375         -3025.013609          15692.52279           10161.9103 
ec     4660          145.4141021          -3041.23468         -3025.013518          15791.94372           10161.9103 
ec     4670          144.7004581         -3041.155086         -3025.013532          15807.65099           10161.9103 
ec     4680          145.8188106         -3041.279912         -3025.013604          15771.80526           10161.9103 
ec     4690          147.9910139         -3041.522282         -3025.013662          15682.78076           10161.9103 
ec     4700          150.5360587         -3041.806227         -3025.013703          15578.82953           10161.9103 
ec     4710          153.0443575         -3042.086073         -3025.013744          15478.32338           10161.9103 
ec     4720          154.8462478         -3042.287172          -3025.01384          15402.53173           10161.9103 
ec     4730          154.8264898         -3042.285029         -3025.013901          15386.92287           10161.9103 
ec     4740          152.1307203         -3041.984264         -3025.013853          15495.25512           10161.9103 
ec     4750          147.3291453         -3041.448472         -3025.013684          15699.18957           10161.9103 
ec     4760            142.77428         -3040.940156          -3025.01347          15911.11797           10161.9103 
ec     4770          141.2230875          -3040.76703         -3025.013382          15987.92926           10161.9103 
ec     4780          143.7619904         -3041.050369         -3025.013502          15871.25323           10161.9103 
ec     4790          149.0139302         -3041.636432         -3025.013704          15640.23045           10161.9103 
ec     4800          154.0774517         -3042.201497         -3025.013925          15402.94291           10161.9103 
ec     4810           156.270866          -3042.44625            -3025.014          15303.55421           10161.9103 
ec     4820          154.7614351         -3042.277757         -3025.013886          15376.99168           10161.9103 
ec     4830          150.9388067         -3041.851173         -3025.013722          15570.03781           10161.9103 
ec     4840          147.4380661         -3041.460501         -3025.013563          15741.49777           10161.9103 
ec     4850          146.3425352         -3041.338282         -3025.013552          15810.71241           10161.9103 
ec     4860          148.0351884         -3041.527208          -3025.01366          15737.33028           10161.9103 
ec     4870          151.2367954         -3041.884487         -3025.013795          15573.67845           10161.9103 
ec     4880           154.005822         -3042.193495         -3025.013914          15443.69552           10161.9103 
ec     4890          154.8211013          -3042.28447         -3025.013943           15415.9345           10161.9103 
ec     4900          153.3092113         -3042.115764          -3025.01389          15487.35514           10161.9103 
ec     4910          150.3783954         -3041.788697         -3025.013761          15601.37628           10161.9103 
ec     4920          147.6768617         -3041.487281         -3025.013705           15705.3639           10161.9103 
ec     4930          146.3760766         -3041.342157         -3025.013686          15741.62299           10161.9103 
ec     4940          146.3997369         -3041.344833         -3025.013722          15720.42375           10161.9103 
ec     4950          146.8506117          -3041.39518         -3025.013773          15698.44884           10161.9103 
ec     4960          147.1470883          -3041.42819         -3025.013711          15696.59129           10161.9103 
ec     4970          147.6492791         -3041.484138         -3025.013639          15722.78221           10161.9103 
ec     4980          149.1621377         -3041.652884         -3025.013623          15676.62422           10161.9103 
ec     4990          151.8290722         -3041.950473         -3025.013711          15574.59981           10161.9103 
ec     5000          154.5657793         -3042.255888         -3025.013843          15452.59302           10161.9103 
ec     5010          155.6964446          -3042.38211         -3025.013937          15383.37505           10161.9103 
ec     5020           154.341872         -3042.230973         -3025.013905          15414.92018           10161.9103 
ec     5030          151.1721425         -3041.877275         -3025.013795          15559.99472           10161.9103 
ec     5040          147.8324349           -3041.5046         -3025.013669          15714.49768           10161.9103 
ec     5050           146.012164         -3041.301472         -3025.013595          15794.74784           10161.9103 
ec     5060          146.7512909          -3041.38392         -3025.013592          15770.70431           10161.9103 
ec     5070          149.8142051         -3041.725701         -3025.013701          15645.17917           10161.9103 
ec     5080          153.4181926         -3042.127905         -3025.013875           15483.6872           10161.9103 
ec     5090          155.1991151         -3042.326653         -3025.013958           15401.1441           10161.9103 
ec     5100          154.0725069         -3042.200878         -3025.013858          15462.05382           10161.9103 
ec     5110          151.1698625         -3041.876905         -3025.013679          15591.94531           10161.9103 
ec     5120          148.7433923         -3041.606127         -3025.013578          15695.23659           10161.9103 
ec     5130          148.1173203         -3041.536342         -3025.013632          15706.59781           10161.9103 
ec     5140          148.6703085         -3041.598172         -3025.013775          15640.21282           10161.9103 
ec     5150           148.615662         -3041.592164         -3025.013864          15608.32078           10161.9103 
ec     5160          146.8296421         -3041.392875         -3025.013808          15672.06575           10161.9103 
ec     5170          144.0977443         -3041.087924         -3025.013604          15788.00639           10161.9103 
ec     5180          142.5762506         -3040.918097         -3025.013502          15869.14341           10161.9103 
ec     5190          143.8314743          -3041.05815         -3025.013533          15829.99282           10161.9103 
ec     5200          147.3610158         -3041.452012         -3025.013669          15701.07864           10161.9103 
ec     5210          151.0955247          -3041.86873         -3025.013797          15562.55333           10161.9103 
ec     5220            153.27041         -3042.111361         -3025.013816          15470.81645           10161.9103 
ec     5230          153.5279626         -3042.140017         -3025.013742          15482.20412           10161.9103 
ec     5240          152.5330919         -3042.029009         -3025.013713          15541.37292           10161.9103 
ec     5250          151.0064695         -3041.858689          -3025.01369          15605.79031           10161.9103 
ec     5260          149.4872583         -3041.689174         -3025.013646          15650.95542           10161.9103 
ec     5270          148.5135764          -3041.58051         -3025.013597          15689.45892           10161.9103 
ec     5280          148.5204915         -3041.581285         -3025.013601          15709.34649           10161.9103 
ec     5290          149.5605041         -3041.697327         -3025.013628          15668.66038           10161.9103 
ec     5300          151.3246148         -3041.894178         -3025.013689          15633.96923           10161.9103 
ec     5310          153.3965792         -3042.125332         -3025.013713          15545.58548           10161.9103 
ec     5320          155.2803089         -3042.335526         -3025.013773          15463.21173           10161.9103 
ec     5330          156.3296833         -3042.452619         -3025.013808          15401.63266           10161.9103 
ec     5340          155.9097549         -3042.405794         -3025.013826          15399.61434           10161.9103 
ec     5350          153.7629708         -3042.166302         -3025.013811           15478.9307           10161.9103 
ec     5360          150.1675767         -3041.765174         -3025.013754          15616.15155           10161.9103 
ec     5370          145.9572476         -3041.295415         -3025.013664          15787.25897           10161.9103 
ec     5380          142.4380933         -3040.902732         -3025.013549          15933.36035           10161.9103 
ec     5390          141.0464092         -3040.747411         -3025.013472          15976.13321           10161.9103 
ec     5400          142.5501307         -3040.915192          -3025.01351          15906.30677           10161.9103 
ec     5410           146.360691          -3041.34038         -3025.013625          15718.36554           10161.9103 
ec     5420          150.5210176         -3041.804608         -3025.013762          15543.10581           10161.9103 
ec     5430          152.8227893         -3042.061462         -3025.013849          15470.05734           10161.9103 
ec     5440          152.3514771         -3042.008808         -3025.013771          15524.89009           10161.9103 
ec     5450          150.2827918         -3041.777856         -3025.013585          15659.41367           10161.9103 
ec     5460          148.9599874         -3041.630198         -3025.013488          15738.37348           10161.9103 
ec     5470          149.8122764         -3041.725331         -3025.013546           15690.5194           10161.9103 
ec     5480          152.0257776         -3041.972394         -3025.013689          15568.63365           10161.9103 
ec     5490          153.4355936         -3042.129763         -3025.013792          15491.45053           10161.9103 
ec     5500          152.5645368         -3042.032554          -3025.01375          15518.39696           10161.9103 
ec     5510          149.7478461         -3041.718223         -3025.013625          15661.39108           10161.9103 
ec     5520          146.6161993          -3041.36874         -3025.013482          15817.54214           10161.9103 
ec     5530          144.9657278         -3041.184563         -3025.013418          15886.14357           10161.9103 
ec     5540          145.8023303          -3041.27792          -3025.01345          15839.55709           10161.9103 
ec     5550          148.6805095         -3041.599128         -3025.013593          15717.26406           10161.9103 
ec     5560          151.8856856         -3041.956798         -3025.013721          15571.80243           10161.9103 
ec     5570          153.6938974          -3042.15855         -3025.013765          15505.82403           10161.9103 
ec     5580          153.6941584         -3042.158504         -3025.013689          15517.50011           10161.9103 
ec     5590          152.9085367         -3042.070752         -3025.013574          15565.71143           10161.9103 
ec     5600          152.5815198         -3042.034289         -3025.013591          15581.69688           10161.9103 
ec     5610           152.896103         -3042.069441          -3025.01365           15548.0253           10161.9103 
ec     5620          152.9787952         -3042.078721         -3025.013706          15541.32672           10161.9103 
ec     5630          151.9782097         -3041.967097         -3025.013699          15568.77789           10161.9103 
ec     5640          150.0286842         -3041.749523         -3025.013598          15648.42529           10161.9103 
ec     5650          148.2593174         -3041.552067         -3025.013517          15709.96201           10161.9103 
ec     5660          147.7135958         -3041.491209         -3025.013535           15727.8915           10161.9103 
ec     5670          148.1547953         -3041.540521          -3025.01363           15687.9191           10161.9103 
ec     5680          148.2562698         -3041.551914         -3025.013704          15674.62131           10161.9103 
ec     5690           147.128247         -3041.426021         -3025.013644           15713.8353           10161.9103 
ec     5700          145.4690609         -3041.240816         -3025.013523          15788.33453           10161.9103 
ec     5710          144.9848095         -3041.186689         -3025.013415           15848.2306           10161.9103 
ec     5720          146.7432327         -3041.382888          -3025.01346            15814.702           10161.9103 
ec     5730          150.1924083         -3041.767772         -3025.013582          15686.53126           10161.9103 
ec     5740          153.5880692         -3042.146649         -3025.013668          15541.31666           10161.9103 
ec     5750          155.5858733         -3042.369527         -3025.013689           15444.1008           10161.9103 
ec     5760          155.9963622         -3042.415302         -3025.013673          15421.47553           10161.9103 
ec     5770          155.1482944         -3042.320718         -3025.013693          15459.60487           10161.9103 
ec     5780          153.2621446         -3042.110267         -3025.013644          15535.79682           10161.9103 
ec     5790          150.7360807         -3041.828429         -3025.013593          15608.99239           10161.9103 
ec     5800          148.2689155         -3041.553168         -3025.013547          15657.40308           10161.9103 
ec     5810          146.3621498         -3041.340422         -3025.013504           15700.5779           10161.9103 
ec     5820          145.1143075         -3041.201227         -3025.013507          15756.56913           10161.9103 
ec     5830          144.4993615         -3041.132596         -3025.013475          15822.45805           10161.9103 
ec     5840          144.5878273         -3041.142421         -3025.013431          15869.91867           10161.9103 
ec     5850          145.6304676         -3041.258692         -3025.013395          15857.20546           10161.9103 
ec     5860          147.9531606          -3041.51775         -3025.013353          15780.01898           10161.9103 
ec     5870          151.3962072          -3041.90192         -3025.013445          15639.43835           10161.9103 
ec     5880          154.7656996         -3042.277914         -3025.013567          15478.74892           10161.9103 
ec     5890          156.3626193         -3042.456128         -3025.013642          15380.69749           10161.9103 
ec     5900          155.3155507         -3042.339269         -3025.013586          15417.43724           10161.9103 
ec     5910          152.2327062         -3041.995237          -3025.01345          15558.50561           10161.9103 
ec     5920          148.6716437         -3041.597874         -3025.013329          15716.96684           10161.9103 
ec     5930          146.1531013         -3041.316858         -3025.013259          15821.53551           10161.9103 
ec     5940          145.5057316         -3041.244619         -3025.013235           15853.9066           10161.9103 
ec     5950          146.6569159         -3041.373063         -3025.013263          15790.61199           10161.9103 
ec     5960          148.7550096         -3041.607183         -3025.013338          15711.94004           10161.9103 
ec     5970          150.8777964         -3041.843971         -3025.013326          15626.97445           10161.9103 
ec     5980          152.6209378         -3042.038448         -3025.013353          15564.35876           10161.9103 
ec     5990          153.8714447         -3042.177939         -3025.013348          15518.01788           10161.9103 
ec     6000          154.4145846         -3042.238542         -3025.013363          15510.91652           10161.9103 
ec     6010          153.9780562         -3042.189844          -3025.01336          15520.38683           10161.9103 
ec     6020          152.6600493         -3042.042819          -3025.01336          15556.73664           10161.9103 
ec     6030          150.9447297         -3041.851437         -3025.013325          15608.45707           10161.9103 
ec     6040          149.1916362         -3041.655875         -3025.013324          15680.32198           10161.9103 
ec     6050          147.3992337         -3041.455938         -3025.013332           15739.3781           10161.9103 
ec     6060          145.8115253         -3041.278762         -3025.013267          15790.94545           10161.9103 
ec     6070          145.4459972          -3041.23792           -3025.0132          15788.90378           10161.9103 
ec     6080          147.2410787         -3041.438232         -3025.013268          15707.18362           10161.9103 
ec     6090           150.500927         -3041.802058         -3025.013453          15582.46711           10161.9103 
ec     6100          153.0091368         -3042.081977         -3025.013577          15495.14137           10161.9103 
ec     6110          152.9331147         -3042.073465         -3025.013546          15509.01836           10161.9103 
ec     6120          150.4868626         -3041.800447          -3025.01341          15609.53494           10161.9103 
ec     6130          147.6488009         -3041.483688         -3025.013242          15747.70584           10161.9103 
ec     6140          146.5670782         -3041.362968          -3025.01319          15783.87181           10161.9103 
ec     6150           147.854528         -3041.506676         -3025.013281          15712.46175           10161.9103 
ec     6160          150.0334755         -3041.749886         -3025.013426          15610.21949           10161.9103 
ec     6170          150.9707896         -3041.854496         -3025.013477          15569.48518           10161.9103 
ec     6180          150.0235108         -3041.748704         -3025.013355          15616.84169           10161.9103 
ec     6190          148.5208275         -3041.580983         -3025.013261          15708.76383           10161.9103 
ec     6200          148.1894348         -3041.543956         -3025.013201           15730.7528           10161.9103 
ec     6210          149.3997287         -3041.679024         -3025.013259          15693.01636           10161.9103 
ec     6220          151.1037048         -3041.869203         -3025.013357          15620.69987           10161.9103 
ec     6230          152.2118509         -3041.992847         -3025.013386          15552.17381           10161.9103 
ec     6240          152.4722585         -3042.021881         -3025.013371          15561.20111           10161.9103 
ec     6250          152.0436173         -3041.974076         -3025.013382          15570.89972           10161.9103 
ec     6260           150.870076         -3041.843194          -3025.01341          15617.13299           10161.9103 
ec     6270          149.0275119          -3041.63757         -3025.013327          15685.57225           10161.9103 
ec     6280          147.1638307          -3041.42959         -3025.013243           15764.1696           10161.9103 
ec     6290          146.2858521         -3041.331609         -3025.013202          15794.91645           10161.9103 
ec     6300          146.8956525         -3041.399677         -3025.013246          15743.95469           10161.9103 
ec     6310          148.5559847         -3041.584957         -3025.013313          15677.95781           10161.9103 
ec     6320          150.3168206         -3041.781413         -3025.013345          15618.50762           10161.9103 
ec     6330          151.6332876         -3041.928235         -3025.013314          15586.87569           10161.9103 
ec     6340          152.5746205         -3042.033251         -3025.013323           15544.6606           10161.9103 
ec     6350          153.1216133           -3042.0943         -3025.013353          15508.35464           10161.9103 
ec     6360          152.7268971         -3042.050323         -3025.013407          15522.58315           10161.9103 
ec     6370          150.8942426          -3041.84586          -3025.01338          15595.13318           10161.9103 
ec     6380          148.1661348         -3041.541407         -3025.013252          15722.61902           10161.9103 
ec     6390          146.3171319         -3041.335009         -3025.013113          15836.80139           10161.9103 
ec     6400          147.1784215         -3041.431053         -3025.013078          15820.04613           10161.9103 
ec     6410           150.918728         -3041.848434         -3025.013222          15670.09666           10161.9103 
ec     6420          155.5338545         -3042.363474         -3025.013439          15452.65044           10161.9103 
ec     6430          158.0037465         -3042.639182         -3025.013626          15325.22388           10161.9103 
ec     6440           156.286318         -3042.447564          -3025.01359          15363.17481           10161.9103 
ec     6450          150.7092283         -3041.825238         -3025.013397          15596.94089           10161.9103 
ec     6460          143.9059133          -3041.06609         -3025.013168          15873.39698           10161.9103 
ec     6470          139.2755616         -3040.549417         -3025.013019          16064.35412           10161.9103 
ec     6480          138.9441458         -3040.512493         -3025.013065           16084.7208           10161.9103 
ec     6490           142.605705         -3040.921097         -3025.013216           15916.6646           10161.9103 
ec     6500          148.0683043         -3041.530638         -3025.013395          15698.62408           10161.9103 
ec     6510          152.8433935         -3042.063405         -3025.013495          15519.61651           10161.9103 
ec     6520          155.4809325         -3042.357631         -3025.013499          15440.53472           10161.9103 
ec     6530          155.9405688         -3042.408843         -3025.013437          15454.03406           10161.9103 
ec     6540          155.1246108         -3042.317744          -3025.01336          15507.69168           10161.9103 
ec     6550          154.0606537         -3042.199032         -3025.013334          15531.84861           10161.9103 
ec     6560          153.3520902         -3042.120013         -3025.013357          15536.12025           10161.9103 
ec     6570          152.9409061         -3042.074202         -3025.013413          15528.72134           10161.9103 
ec     6580           152.246404         -3041.996793         -3025.013478          15556.85905           10161.9103 
ec     6590          150.7379738         -3041.828515         -3025.013467          15612.54276           10161.9103 
ec     6600          148.5664608         -3041.586206         -3025.013393          15714.84956           10161.9103 
ec     6610          146.6307957         -3041.370192         -3025.013306          15794.59674           10161.9103 
ec     6620          145.9163035           -3041.2905         -3025.013317          15807.14064           10161.9103 
ec     6630          146.6909419         -3041.376952         -3025.013356          15755.92258           10161.9103 
ec     6640          148.2132628         -3041.546843          -3025.01343          15684.98402           10161.9103 
ec     6650          149.3475905          -3041.67342         -3025.013471           15644.4006           10161.9103 
ec     6660          149.5393011         -3041.694758         -3025.013424          15644.73389           10161.9103 
ec     6670          149.1506603         -3041.651349         -3025.013369           15681.0983           10161.9103 
[...]
ec     8410          144.7381712         -3041.159149         -3025.013388          15848.74743           10161.9103 
ec     8420          144.1275981         -3041.091031         -3025.013381          15882.93131           10161.9103 
ec     8430          144.5192252         -3041.134728         -3025.013391          15866.21111           10161.9103 
ec     8440          145.9401752         -3041.293234         -3025.013388          15817.71297           10161.9103 
ec     8450           148.449033         -3041.573116         -3025.013403          15710.47859           10161.9103 
ec     8460          151.6686051         -3041.932331          -3025.01347          15592.65696           10161.9103 
ec     8470          154.6360428         -3042.263428         -3025.013545          15464.59928           10161.9103 
ec     8480          156.2112715         -3042.439195         -3025.013593          15413.27324           10161.9103 
ec     8490          155.7043998         -3042.382619         -3025.013559          15452.44892           10161.9103 
ec     8500          153.3160781          -3042.11612         -3025.013481           15574.5742           10161.9103 
ec     8510          150.1040645         -3041.757721         -3025.013386          15705.34488           10161.9103 
ec     8520          147.2993269         -3041.444779         -3025.013317          15809.55557           10161.9103 
ec     8530          145.7674256         -3041.273838         -3025.013263          15846.13264           10161.9103 
ec     8540          145.8884231         -3041.287348         -3025.013275          15814.58902           10161.9103 
ec     8550          147.4744178         -3041.464353          -3025.01336          15735.78215           10161.9103 
ec     8560          149.6621886         -3041.708476         -3025.013434          15653.01828           10161.9103 
ec     8570          151.3766021         -3041.899765         -3025.013477          15593.72431           10161.9103 
ec     8580          151.9927143         -3041.968508         -3025.013492          15571.03015           10161.9103 
ec     8590          151.6812915         -3041.933734         -3025.013458          15603.42892           10161.9103 
ec     8600          151.0848801         -3041.867124         -3025.013378          15619.13267           10161.9103 
ec     8610          150.6665874         -3041.820487         -3025.013402          15610.86401           10161.9103 
ec     8620          150.2887116         -3041.778375         -3025.013443          15600.83279           10161.9103 
ec     8630          149.3597042         -3041.674754         -3025.013455          15622.19825           10161.9103 
ec     8640          147.5878556         -3041.477056         -3025.013409          15712.01725           10161.9103 
ec     8650          145.7014106         -3041.266519         -3025.013308          15805.80584           10161.9103 
ec     8660          145.2261419         -3041.213403         -3025.013208          15861.05169           10161.9103 
ec     8670          147.1872901         -3041.432201         -3025.013237          15809.08338           10161.9103 
ec     8680          151.1258331         -3041.871691         -3025.013377          15650.83209           10161.9103 
ec     8690          155.1780852         -3042.323898         -3025.013549          15468.96218           10161.9103 
ec     8700          157.1443934         -3042.543363          -3025.01367          15371.07034           10161.9103 
ec     8710          155.8894745         -3042.403309         -3025.013604          15431.68394           10161.9103 
ec     8720          152.1624199         -3041.987399         -3025.013452          15600.68292           10161.9103 
ec     8730          148.1080063         -3041.534972         -3025.013301           15767.6813           10161.9103 
ec     8740          145.7849584          -3041.27578         -3025.013248          15852.68605           10161.9103 
ec     8750          145.6936032          -3041.26567         -3025.013329          15830.16241           10161.9103 
ec     8760          146.7802937         -3041.386973          -3025.01341           15754.0402           10161.9103 
ec     8770          147.8960113         -3041.511425         -3025.013402           15688.0197           10161.9103 
ec     8780          148.8676856         -3041.619781         -3025.013367          15678.86048           10161.9103 
ec     8790          150.0549084         -3041.752249         -3025.013398             15674.79           10161.9103 
ec     8800          151.4010782         -3041.902462         -3025.013444          15653.92198           10161.9103 
ec     8810           152.379322         -3042.011637         -3025.013495          15594.36488           10161.9103 
ec     8820          152.5982469         -3042.036054          -3025.01349          15560.81776           10161.9103 
ec     8830           152.052478         -3041.975132         -3025.013449          15547.88572           10161.9103 
ec     8840          150.9637371          -3041.85367         -3025.013438          15573.22293           10161.9103 
ec     8850          149.5332504         -3041.694069          -3025.01341          15628.73201           10161.9103 
ec     8860          148.1412238         -3041.538734         -3025.013357          15708.84476           10161.9103 
ec     8870          147.4561528         -3041.462276          -3025.01332          15746.85921           10161.9103 
ec     8880          148.0066024         -3041.523676         -3025.013317          15747.54914           10161.9103 
ec     8890          149.6081116         -3041.702389         -3025.013379          15668.95682           10161.9103 
ec     8900          151.3529639         -3041.897121          -3025.01347          15596.41679           10161.9103 
ec     8910          152.0788652         -3041.978148         -3025.013521          15569.53176           10161.9103 
ec     8920          150.9314314         -3041.850124         -3025.013496          15613.58781           10161.9103 
ec     8930          148.1425941         -3041.538917         -3025.013388          15716.10106           10161.9103 
ec     8940          145.3615827         -3041.228531         -3025.013228          15840.80659           10161.9103 
ec     8950          144.7343234         -3041.158477         -3025.013145          15860.47579           10161.9103 
ec     8960          147.3408965         -3041.449321         -3025.013222          15747.42205           10161.9103 
ec     8970          152.1709789         -3041.988311          -3025.01341          15543.12382           10161.9103 
ec     8980          156.6249845         -3042.485348         -3025.013595          15350.71255           10161.9103 
ec     8990          158.1767531         -3042.658488         -3025.013633          15294.80125           10161.9103 
ec     9000          155.9587975         -3042.410995         -3025.013556           15397.0476           10161.9103 
ec     9010          151.0890527         -3041.867604         -3025.013393          15621.59165           10161.9103 
ec     9020          145.9032752         -3041.288967         -3025.013237          15855.21051           10161.9103 
ec     9030          142.7673196         -3040.939044         -3025.013135          15987.81685           10161.9103 
ec     9040          143.1152439         -3040.977868         -3025.013147          15946.53855           10161.9103 
ec     9050          146.6796083         -3041.375642         -3025.013311          15776.05115           10161.9103 
ec     9060            151.46052         -3041.909166         -3025.013517          15555.11588           10161.9103 
ec     9070          154.7869747         -3042.280355         -3025.013635          15421.00248           10161.9103 
ec     9080          155.0890772         -3042.314039         -3025.013619          15417.13402           10161.9103 
ec     9090          152.7654622         -3042.054687          -3025.01347          15515.35226           10161.9103 
ec     9100          149.7061821          -3041.71327          -3025.01332          15635.54048           10161.9103 
ec     9110          147.9641357         -3041.518881         -3025.013259           15711.6886           10161.9103 
ec     9120          148.1966428         -3041.544934         -3025.013375          15696.49948           10161.9103 
ec     9130          149.3669015         -3041.675584         -3025.013481          15620.45283           10161.9103 
ec     9140          150.0098989         -3041.747328         -3025.013498          15595.78637           10161.9103 
ec     9150          149.5940447         -3041.700911          -3025.01347          15618.64406           10161.9103 
ec     9160          148.5365096         -3041.582894         -3025.013423          15694.71597           10161.9103 
ec     9170          147.5035993          -3041.46765         -3025.013402          15746.74762           10161.9103 
ec     9180          147.0612841         -3041.418289         -3025.013381          15737.57797           10161.9103 
ec     9190          147.3401082         -3041.449417         -3025.013406          15709.08261           10161.9103 
ec     9200          147.8816335         -3041.509872         -3025.013454          15689.64415           10161.9103 
ec     9210          148.2595414         -3041.551995          -3025.01342           15681.3909           10161.9103 
ec     9220          148.9120076         -3041.624693         -3025.013335          15667.07695           10161.9103 
ec     9230          150.7509141         -3041.829827         -3025.013336          15589.17813           10161.9103 
ec     9240          153.8207904         -3042.172368         -3025.013428          15472.81081           10161.9103 
ec     9250          156.6913936         -3042.492756         -3025.013595           15351.5774           10161.9103 
ec     9260          157.3656149         -3042.568051          -3025.01368           15311.9029           10161.9103 
ec     9270          154.7720967         -3042.278671          -3025.01361          15416.92935           10161.9103 
ec     9280          149.6435903         -3041.706436         -3025.013468          15627.66596           10161.9103 
ec     9290          144.2237259         -3041.101683         -3025.013309          15855.12855           10161.9103 
ec     9300          140.9859101         -3040.740419         -3025.013229          15994.07915           10161.9103 
ec     9310          141.2933075         -3040.774721          -3025.01324           15963.1656           10161.9103 
ec     9320          144.7605876          -3041.16161         -3025.013348          15805.54327           10161.9103 
ec     9330          149.7100434         -3041.713905         -3025.013524          15603.35578           10161.9103 
ec     9340          154.0048303         -3042.193114         -3025.013643           15426.7179           10161.9103 
ec     9350          155.9275755         -3042.407668         -3025.013712          15363.16127           10161.9103 
ec     9360          154.9860955         -3042.302534         -3025.013602           15434.1705           10161.9103 
ec     9370          152.3555596         -3042.008951         -3025.013459          15559.02982           10161.9103 
ec     9380          150.1896673         -3041.767221         -3025.013338          15653.11418           10161.9103 
ec     9390          149.9860214         -3041.744553         -3025.013386          15650.71371           10161.9103 
ec     9400          151.4184831         -3041.904466         -3025.013506          15581.11419           10161.9103 
ec     9410           152.828836         -3042.061893         -3025.013607          15515.31136           10161.9103 
ec     9420          152.8137578         -3042.060205           -3025.0136          15536.53348           10161.9103 
ec     9430          151.4713982         -3041.910363           -3025.0135          15603.36255           10161.9103 
ec     9440          150.1704134         -3041.765143         -3025.013407           15654.2875           10161.9103 
ec     9450           149.975481         -3041.743446         -3025.013456          15649.80564           10161.9103 
ec     9460          150.3481716         -3041.785172         -3025.013607          15617.82378           10161.9103 
ec     9470          149.6270595         -3041.704791         -3025.013667          15610.46438           10161.9103 
ec     9480          147.0412913         -3041.416251         -3025.013574          15713.73818           10161.9103 
ec     9490          143.9968959          -3041.07645         -3025.013379          15843.03265           10161.9103 
ec     9500          143.0862324           -3040.9748         -3025.013316          15884.99621           10161.9103 
ec     9510          145.6301682         -3041.258658         -3025.013393          15785.34365           10161.9103 
ec     9520          150.5200215         -3041.804327         -3025.013592           15593.7965           10161.9103 
ec     9530           155.092049         -3042.314523         -3025.013772          15377.85871           10161.9103 
ec     9540          156.9102019          -3042.51737         -3025.013801          15321.23144           10161.9103 
ec     9550          155.2761374         -3042.335022         -3025.013735          15390.41298           10161.9103 
ec     9560          151.3960621         -3041.902043         -3025.013584          15556.82934           10161.9103 
ec     9570          147.3217124         -3041.447412         -3025.013453          15738.23453           10161.9103 
ec     9580          144.6554452         -3041.149939         -3025.013407          15846.01803           10161.9103 
ec     9590          144.1103996         -3041.089135         -3025.013403          15859.56669           10161.9103 
ec     9600           145.575136         -3041.252587         -3025.013462          15776.62858           10161.9103 
ec     9610          148.0890019         -3041.533124         -3025.013573          15658.59558           10161.9103 
ec     9620          150.1936286         -3041.767965          -3025.01364          15563.71967           10161.9103 
ec     9630          150.8157281         -3041.837379         -3025.013657          15566.57376           10161.9103 
ec     9640           149.980088         -3041.744063         -3025.013559          15623.54201           10161.9103 
ec     9650           148.754913         -3041.607267         -3025.013433          15682.26217           10161.9103 
ec     9660           148.451281          -3041.57333         -3025.013366           15690.6568           10161.9103 
ec     9670          149.7967072         -3041.723434         -3025.013386          15636.41335           10161.9103 
ec     9680          152.4776319         -3042.022584         -3025.013474          15519.05394           10161.9103 
ec     9690          155.2541246         -3042.332421          -3025.01359          15405.98137           10161.9103 
ec     9700          156.5476965         -3042.476798         -3025.013667          15359.65931           10161.9103 
ec     9710          155.3001927         -3042.337596         -3025.013626          15412.52529           10161.9103 
ec     9720          151.7904905         -3041.945974         -3025.013516          15543.94907           10161.9103 
ec     9730          147.7135824         -3041.491036         -3025.013363          15676.01592           10161.9103 
ec     9740          145.1211114         -3041.201779           -3025.0133           15773.0379           10161.9103 
ec     9750          144.9580232          -3041.18366         -3025.013374          15756.20385           10161.9103 
ec     9760          146.5116636         -3041.357085         -3025.013488          15681.16033           10161.9103 
ec     9770          148.2479913         -3041.550835         -3025.013548          15613.76598           10161.9103 
ec     9780           149.153617          -3041.65184          -3025.01353          15610.46486           10161.9103 
ec     9790          149.3296922         -3041.671437         -3025.013485           15634.6071           10161.9103 
ec     9800          149.6576447            -3041.708         -3025.013465          15655.16339           10161.9103 
ec     9810          150.8241034         -3041.838156           -3025.0135          15630.84656           10161.9103 
ec     9820          152.6171228         -3042.038218         -3025.013548          15549.07276           10161.9103 
ec     9830          154.1216336         -3042.206125         -3025.013625          15455.10044           10161.9103 
ec     9840          154.5497986         -3042.253901         -3025.013638          15424.69764           10161.9103 
ec     9850          153.7266234         -3042.162038         -3025.013601          15443.74438           10161.9103 
ec     9860          152.0302534         -3041.972767         -3025.013564          15517.50136           10161.9103 
ec     9870           150.179618         -3041.766291         -3025.013529           15609.4595           10161.9103 
ec     9880          149.0227777         -3041.637234         -3025.013519           15658.3718           10161.9103 
ec     9890          148.9835495         -3041.632903         -3025.013564           15660.1529           10161.9103 
ec     9900          149.5766513         -3041.699151          -3025.01365          15614.23689           10161.9103 
ec     9910           149.534167         -3041.694509         -3025.013748          15611.99531           10161.9103 
ec     9920          147.8389591         -3041.505369          -3025.01371           15683.8551           10161.9103 
ec     9930          145.0287664         -3041.191732         -3025.013554          15802.49481           10161.9103 
ec     9940          143.2270302         -3040.990604         -3025.013413          15875.38723           10161.9103 
ec     9950           144.419742         -3041.123655         -3025.013415          15836.63058           10161.9103 
ec     9960          148.3492926         -3041.562194         -3025.013607          15673.98266           10161.9103 
ec     9970          152.5115804         -3042.026679         -3025.013782          15502.79885           10161.9103 
ec     9980          154.3590886         -3042.232805         -3025.013817           15435.1679           10161.9103 
ec     9990          153.4001115          -3042.12569         -3025.013677          15470.49504           10161.9103 
ec    10000          151.2257825         -3041.882999         -3025.013535          15567.77503           10161.9103 
Loop time of 27.1579 on 1 procs for 10000 steps with 864 atoms

Performance: 31.814 ns/day, 0.754 hours/ns, 368.217 timesteps/s
93.9% CPU use with 1 MPI tasks x no OpenMP threads

MPI task timing breakdown:
Section |  min time  |  avg time  |  max time  |%varavg| %total
---------------------------------------------------------------
Pair    | 25.45      | 25.45      | 25.45      |   0.0 | 93.71
Neigh   | 0.68257    | 0.68257    | 0.68257    |   0.0 |  2.51
Comm    | 0.21257    | 0.21257    | 0.21257    |   0.0 |  0.78
Output  | 0.51051    | 0.51051    | 0.51051    |   0.0 |  1.88
Modify  | 0.24532    | 0.24532    | 0.24532    |   0.0 |  0.90
Other   |            | 0.05702    |            |       |  0.21

Nlocal:    864 ave 864 max 864 min
Histogram: 1 0 0 0 0 0 0 0 0 0
Nghost:    1595 ave 1595 max 1595 min
Histogram: 1 0 0 0 0 0 0 0 0 0
Neighs:    23177 ave 23177 max 23177 min
Histogram: 1 0 0 0 0 0 0 0 0 0

Total # of neighbors = 23177
Ave neighs/atom = 26.8252
Neighbor list builds = 324
Dangerous builds = 0
Total wall time: 0:00:27
