ITEM: TIMESTEP
0
ITEM: NUMBER OF ATOMS
864
ITEM: BOX BOUNDS pp pp pp
0 21.66
0 21.66
0 21.66
ITEM: ATOMS type x y z c_ep 
1 0 0 0 -3.53991 
1 1.805 1.805 0 -3.53991 
1 1.805 0 1.805 -3.53991 
1 0 1.805 1.805 -3.53991 
1 3.61 0 0 -3.53991 
1 5.415 1.805 0 -3.53991 
1 5.415 0 1.805 -3.53991 
1 3.61 1.805 1.805 -3.53991 
1 7.22 0 0 -3.53991 
1 7.22 1.805 1.805 -3.53991 
1 9.025 1.805 0 -3.53991 
1 9.025 0 1.805 -3.53991 
1 10.83 0 0 -3.53991 
1 10.83 1.805 1.805 -3.53991 
1 12.635 1.805 0 -3.53991 
1 12.635 0 1.805 -3.53991 
1 14.44 0 0 -3.53991 
1 14.44 1.805 1.805 -3.53991 
1 16.245 1.805 0 -3.53991 
1 16.245 0 1.805 -3.53991 
1 18.05 0 0 -3.53991 
1 18.05 1.805 1.805 -3.53991 
1 19.855 1.805 0 -3.53991 
1 19.855 0 1.805 -3.53991 
1 0 3.61 0 -3.53991 
1 1.805 5.415 0 -3.53991 
1 1.805 3.61 1.805 -3.53991 
1 0 5.415 1.805 -3.53991 
1 3.61 3.61 0 -3.53991 
1 5.415 5.415 0 -3.53991 
1 5.415 3.61 1.805 -3.53991 
1 3.61 5.415 1.805 -3.53991 
1 7.22 3.61 0 -3.53991 
1 7.22 5.415 1.805 -3.53991 
1 9.025 5.415 0 -3.53991 
1 9.025 3.61 1.805 -3.53991 
1 10.83 3.61 0 -3.53991 
1 10.83 5.415 1.805 -3.53991 
1 12.635 5.415 0 -3.53991 
1 12.635 3.61 1.805 -3.53991 
1 14.44 3.61 0 -3.53991 
1 14.44 5.415 1.805 -3.53991 
1 16.245 5.415 0 -3.53991 
1 16.245 3.61 1.805 -3.53991 
1 18.05 3.61 0 -3.53991 
1 18.05 5.415 1.805 -3.53991 
1 19.855 5.415 0 -3.53991 
1 19.855 3.61 1.805 -3.53991 
1 0 7.22 0 -3.53991 
1 1.805 7.22 1.805 -3.53991 
1 3.61 7.22 0 -3.53991 
1 5.415 7.22 1.805 -3.53991 
1 7.22 7.22 0 -3.53991 
1 9.025 7.22 1.805 -3.53991 
1 10.83 7.22 0 -3.53991 
1 12.635 7.22 1.805 -3.53991 
1 14.44 7.22 0 -3.53991 
1 16.245 7.22 1.805 -3.53991 
1 18.05 7.22 0 -3.53991 
1 19.855 7.22 1.805 -3.53991 
1 1.805 9.025 0 -3.53991 
1 0 9.025 1.805 -3.53991 
1 0 10.83 0 -3.53991 
1 1.805 10.83 1.805 -3.53991 
1 5.415 9.025 0 -3.53991 
1 3.61 9.025 1.805 -3.53991 
1 3.61 10.83 0 -3.53991 
1 5.415 10.83 1.805 -3.53991 
1 7.22 9.025 1.805 -3.53991 
1 7.22 10.83 0 -3.53991 
1 9.025 9.025 0 -3.53991 
1 10.83 9.025 1.805 -3.53991 
1 9.025 10.83 1.805 -3.53991 
1 10.83 10.83 0 -3.53991 
1 12.635 9.025 0 -3.53991 
1 12.635 10.83 1.805 -3.53991 
1 14.44 9.025 1.805 -3.53991 
1 14.44 10.83 0 -3.53991 
1 16.245 9.025 0 -3.53991 
1 18.05 9.025 1.805 -3.53991 
1 16.245 10.83 1.805 -3.53991 
1 18.05 10.83 0 -3.53991 
1 19.855 9.025 0 -3.53991 
1 19.855 10.83 1.805 -3.53991 
1 1.805 12.635 0 -3.53991 
1 0 12.635 1.805 -3.53991 
1 5.415 12.635 0 -3.53991 
1 3.61 12.635 1.805 -3.53991 
1 7.22 12.635 1.805 -3.53991 
1 9.025 12.635 0 -3.53991 
1 10.83 12.635 1.805 -3.53991 
1 12.635 12.635 0 -3.53991 
1 14.44 12.635 1.805 -3.53991 
1 16.245 12.635 0 -3.53991 
1 18.05 12.635 1.805 -3.53991 
1 19.855 12.635 0 -3.53991 
1 0 14.44 0 -3.53991 
1 1.805 14.44 1.805 -3.53991 
1 3.61 14.44 0 -3.53991 
1 5.415 14.44 1.805 -3.53991 
1 7.22 14.44 0 -3.53991 
1 9.025 14.44 1.805 -3.53991 
1 10.83 14.44 0 -3.53991 
1 12.635 14.44 1.805 -3.53991 
1 14.44 14.44 0 -3.53991 
1 16.245 14.44 1.805 -3.53991 
1 18.05 14.44 0 -3.53991 
1 19.855 14.44 1.805 -3.53991 
1 1.805 16.245 0 -3.53991 
1 0 16.245 1.805 -3.53991 
1 0 18.05 0 -3.53991 
1 1.805 18.05 1.805 -3.53991 
1 5.415 16.245 0 -3.53991 
1 3.61 16.245 1.805 -3.53991 
1 3.61 18.05 0 -3.53991 
1 5.415 18.05 1.805 -3.53991 
1 7.22 16.245 1.805 -3.53991 
1 7.22 18.05 0 -3.53991 
1 9.025 16.245 0 -3.53991 
1 10.83 16.245 1.805 -3.53991 
1 9.025 18.05 1.805 -3.53991 
1 10.83 18.05 0 -3.53991 
1 12.635 16.245 0 -3.53991 
1 12.635 18.05 1.805 -3.53991 
1 14.44 16.245 1.805 -3.53991 
1 14.44 18.05 0 -3.53991 
1 16.245 16.245 0 -3.53991 
1 18.05 16.245 1.805 -3.53991 
1 16.245 18.05 1.805 -3.53991 
1 18.05 18.05 0 -3.53991 
1 19.855 16.245 0 -3.53991 
1 19.855 18.05 1.805 -3.53991 
1 1.805 19.855 0 -3.53991 
1 0 19.855 1.805 -3.53991 
1 5.415 19.855 0 -3.53991 
1 3.61 19.855 1.805 -3.53991 
1 7.22 19.855 1.805 -3.53991 
1 9.025 19.855 0 -3.53991 
1 10.83 19.855 1.805 -3.53991 
1 12.635 19.855 0 -3.53991 
1 14.44 19.855 1.805 -3.53991 
1 16.245 19.855 0 -3.53991 
1 18.05 19.855 1.805 -3.53991 
1 19.855 19.855 0 -3.53991 
1 0 0 3.61 -3.53991 
1 1.805 1.805 3.61 -3.53991 
1 1.805 0 5.415 -3.53991 
1 0 1.805 5.415 -3.53991 
1 3.61 0 3.61 -3.53991 
1 5.415 1.805 3.61 -3.53991 
1 5.415 0 5.415 -3.53991 
1 3.61 1.805 5.415 -3.53991 
1 7.22 0 3.61 -3.53991 
1 7.22 1.805 5.415 -3.53991 
1 9.025 1.805 3.61 -3.53991 
1 9.025 0 5.415 -3.53991 
1 10.83 0 3.61 -3.53991 
1 10.83 1.805 5.415 -3.53991 
1 12.635 1.805 3.61 -3.53991 
1 12.635 0 5.415 -3.53991 
1 14.44 0 3.61 -3.53991 
1 14.44 1.805 5.415 -3.53991 
1 16.245 1.805 3.61 -3.53991 
1 16.245 0 5.415 -3.53991 
1 18.05 0 3.61 -3.53991 
1 18.05 1.805 5.415 -3.53991 
1 19.855 1.805 3.61 -3.53991 
1 19.855 0 5.415 -3.53991 
1 0 3.61 3.61 -3.53991 
1 1.805 5.415 3.61 -3.53991 
1 1.805 3.61 5.415 -3.53991 
1 0 5.415 5.415 -3.53991 
1 3.61 3.61 3.61 -3.53991 
1 5.415 5.415 3.61 -3.53991 
1 5.415 3.61 5.415 -3.53991 
1 3.61 5.415 5.415 -3.53991 
1 7.22 3.61 3.61 -3.53991 
1 7.22 5.415 5.415 -3.53991 
1 9.025 5.415 3.61 -3.53991 
1 9.025 3.61 5.415 -3.53991 
1 10.83 3.61 3.61 -3.53991 
1 10.83 5.415 5.415 -3.53991 
1 12.635 5.415 3.61 -3.53991 
1 12.635 3.61 5.415 -3.53991 
1 14.44 3.61 3.61 -3.53991 
1 14.44 5.415 5.415 -3.53991 
1 16.245 5.415 3.61 -3.53991 
1 16.245 3.61 5.415 -3.53991 
1 18.05 3.61 3.61 -3.53991 
1 18.05 5.415 5.415 -3.53991 
1 19.855 5.415 3.61 -3.53991 
1 19.855 3.61 5.415 -3.53991 
1 0 7.22 3.61 -3.53991 
1 1.805 7.22 5.415 -3.53991 
1 3.61 7.22 3.61 -3.53991 
1 5.415 7.22 5.415 -3.53991 
1 7.22 7.22 3.61 -3.53991 
1 9.025 7.22 5.415 -3.53991 
1 10.83 7.22 3.61 -3.53991 
1 12.635 7.22 5.415 -3.53991 
1 14.44 7.22 3.61 -3.53991 
1 16.245 7.22 5.415 -3.53991 
1 18.05 7.22 3.61 -3.53991 
1 19.855 7.22 5.415 -3.53991 
1 1.805 9.025 3.61 -3.53991 
1 0 9.025 5.415 -3.53991 
1 0 10.83 3.61 -3.53991 
1 1.805 10.83 5.415 -3.53991 
1 5.415 9.025 3.61 -3.53991 
1 3.61 9.025 5.415 -3.53991 
1 3.61 10.83 3.61 -3.53991 
1 5.415 10.83 5.415 -3.53991 
1 7.22 9.025 5.415 -3.53991 
1 7.22 10.83 3.61 -3.53991 
1 9.025 9.025 3.61 -3.53991 
1 10.83 9.025 5.415 -3.53991 
1 9.025 10.83 5.415 -3.53991 
1 10.83 10.83 3.61 -3.53991 
1 12.635 9.025 3.61 -3.53991 
1 12.635 10.83 5.415 -3.53991 
1 14.44 9.025 5.415 -3.53991 
1 14.44 10.83 3.61 -3.53991 
1 16.245 9.025 3.61 -3.53991 
1 18.05 9.025 5.415 -3.53991 
1 16.245 10.83 5.415 -3.53991 
1 18.05 10.83 3.61 -3.53991 
1 19.855 9.025 3.61 -3.53991 
1 19.855 10.83 5.415 -3.53991 
1 1.805 12.635 3.61 -3.53991 
1 0 12.635 5.415 -3.53991 
1 5.415 12.635 3.61 -3.53991 
1 3.61 12.635 5.415 -3.53991 
1 7.22 12.635 5.415 -3.53991 
1 9.025 12.635 3.61 -3.53991 
1 10.83 12.635 5.415 -3.53991 
1 12.635 12.635 3.61 -3.53991 
1 14.44 12.635 5.415 -3.53991 
1 16.245 12.635 3.61 -3.53991 
1 18.05 12.635 5.415 -3.53991 
1 19.855 12.635 3.61 -3.53991 
1 0 14.44 3.61 -3.53991 
1 1.805 14.44 5.415 -3.53991 
1 3.61 14.44 3.61 -3.53991 
1 5.415 14.44 5.415 -3.53991 
1 7.22 14.44 3.61 -3.53991 
1 9.025 14.44 5.415 -3.53991 
1 10.83 14.44 3.61 -3.53991 
1 12.635 14.44 5.415 -3.53991 
1 14.44 14.44 3.61 -3.53991 
1 16.245 14.44 5.415 -3.53991 
1 18.05 14.44 3.61 -3.53991 
1 19.855 14.44 5.415 -3.53991 
1 1.805 16.245 3.61 -3.53991 
1 0 16.245 5.415 -3.53991 
1 0 18.05 3.61 -3.53991 
1 1.805 18.05 5.415 -3.53991 
1 5.415 16.245 3.61 -3.53991 
1 3.61 16.245 5.415 -3.53991 
1 3.61 18.05 3.61 -3.53991 
1 5.415 18.05 5.415 -3.53991 
1 7.22 16.245 5.415 -3.53991 
1 7.22 18.05 3.61 -3.53991 
1 9.025 16.245 3.61 -3.53991 
1 10.83 16.245 5.415 -3.53991 
1 9.025 18.05 5.415 -3.53991 
1 10.83 18.05 3.61 -3.53991 
1 12.635 16.245 3.61 -3.53991 
1 12.635 18.05 5.415 -3.53991 
1 14.44 16.245 5.415 -3.53991 
1 14.44 18.05 3.61 -3.53991 
1 16.245 16.245 3.61 -3.53991 
1 18.05 16.245 5.415 -3.53991 
1 16.245 18.05 5.415 -3.53991 
1 18.05 18.05 3.61 -3.53991 
1 19.855 16.245 3.61 -3.53991 
1 19.855 18.05 5.415 -3.53991 
1 1.805 19.855 3.61 -3.53991 
1 0 19.855 5.415 -3.53991 
1 5.415 19.855 3.61 -3.53991 
1 3.61 19.855 5.415 -3.53991 
1 7.22 19.855 5.415 -3.53991 
1 9.025 19.855 3.61 -3.53991 
1 10.83 19.855 5.415 -3.53991 
1 12.635 19.855 3.61 -3.53991 
1 14.44 19.855 5.415 -3.53991 
1 16.245 19.855 3.61 -3.53991 
1 18.05 19.855 5.415 -3.53991 
1 19.855 19.855 3.61 -3.53991 
1 0 0 7.22 -3.53991 
1 1.805 1.805 7.22 -3.53991 
1 3.61 0 7.22 -3.53991 
1 5.415 1.805 7.22 -3.53991 
1 7.22 0 7.22 -3.53991 
1 9.025 1.805 7.22 -3.53991 
1 10.83 0 7.22 -3.53991 
1 12.635 1.805 7.22 -3.53991 
1 14.44 0 7.22 -3.53991 
1 16.245 1.805 7.22 -3.53991 
1 18.05 0 7.22 -3.53991 
1 19.855 1.805 7.22 -3.53991 
1 0 3.61 7.22 -3.53991 
1 1.805 5.415 7.22 -3.53991 
1 3.61 3.61 7.22 -3.53991 
1 5.415 5.415 7.22 -3.53991 
1 7.22 3.61 7.22 -3.53991 
1 9.025 5.415 7.22 -3.53991 
1 10.83 3.61 7.22 -3.53991 
1 12.635 5.415 7.22 -3.53991 
1 14.44 3.61 7.22 -3.53991 
1 16.245 5.415 7.22 -3.53991 
1 18.05 3.61 7.22 -3.53991 
1 19.855 5.415 7.22 -3.53991 
1 0 7.22 7.22 -3.53991 
1 3.61 7.22 7.22 -3.53991 
1 7.22 7.22 7.22 -3.53991 
1 10.83 7.22 7.22 -3.53991 
1 14.44 7.22 7.22 -3.53991 
1 18.05 7.22 7.22 -3.53991 
1 1.805 9.025 7.22 -3.53991 
1 0 10.83 7.22 -3.53991 
1 5.415 9.025 7.22 -3.53991 
1 3.61 10.83 7.22 -3.53991 
1 7.22 10.83 7.22 -3.53991 
1 9.025 9.025 7.22 -3.53991 
1 10.83 10.83 7.22 -3.53991 
1 12.635 9.025 7.22 -3.53991 
1 14.44 10.83 7.22 -3.53991 
1 16.245 9.025 7.22 -3.53991 
1 18.05 10.83 7.22 -3.53991 
1 19.855 9.025 7.22 -3.53991 
1 1.805 12.635 7.22 -3.53991 
1 5.415 12.635 7.22 -3.53991 
1 9.025 12.635 7.22 -3.53991 
1 12.635 12.635 7.22 -3.53991 
1 16.245 12.635 7.22 -3.53991 
1 19.855 12.635 7.22 -3.53991 
1 0 14.44 7.22 -3.53991 
1 3.61 14.44 7.22 -3.53991 
1 7.22 14.44 7.22 -3.53991 
1 10.83 14.44 7.22 -3.53991 
1 14.44 14.44 7.22 -3.53991 
1 18.05 14.44 7.22 -3.53991 
1 1.805 16.245 7.22 -3.53991 
1 0 18.05 7.22 -3.53991 
1 5.415 16.245 7.22 -3.53991 
1 3.61 18.05 7.22 -3.53991 
1 7.22 18.05 7.22 -3.53991 
1 9.025 16.245 7.22 -3.53991 
1 10.83 18.05 7.22 -3.53991 
1 12.635 16.245 7.22 -3.53991 
1 14.44 18.05 7.22 -3.53991 
1 16.245 16.245 7.22 -3.53991 
1 18.05 18.05 7.22 -3.53991 
1 19.855 16.245 7.22 -3.53991 
1 1.805 19.855 7.22 -3.53991 
1 5.415 19.855 7.22 -3.53991 
1 9.025 19.855 7.22 -3.53991 
1 12.635 19.855 7.22 -3.53991 
1 16.245 19.855 7.22 -3.53991 
1 19.855 19.855 7.22 -3.53991 
1 1.805 0 9.025 -3.53991 
1 0 1.805 9.025 -3.53991 
1 0 0 10.83 -3.53991 
1 1.805 1.805 10.83 -3.53991 
1 5.415 0 9.025 -3.53991 
1 3.61 1.805 9.025 -3.53991 
1 3.61 0 10.83 -3.53991 
1 5.415 1.805 10.83 -3.53991 
1 7.22 1.805 9.025 -3.53991 
1 7.22 0 10.83 -3.53991 
1 9.025 0 9.025 -3.53991 
1 10.83 1.805 9.025 -3.53991 
1 9.025 1.805 10.83 -3.53991 
1 10.83 0 10.83 -3.53991 
1 12.635 0 9.025 -3.53991 
1 12.635 1.805 10.83 -3.53991 
1 14.44 1.805 9.025 -3.53991 
1 14.44 0 10.83 -3.53991 
1 16.245 0 9.025 -3.53991 
1 18.05 1.805 9.025 -3.53991 
1 16.245 1.805 10.83 -3.53991 
1 18.05 0 10.83 -3.53991 
1 19.855 0 9.025 -3.53991 
1 19.855 1.805 10.83 -3.53991 
1 1.805 3.61 9.025 -3.53991 
1 0 5.415 9.025 -3.53991 
1 0 3.61 10.83 -3.53991 
1 1.805 5.415 10.83 -3.53991 
1 5.415 3.61 9.025 -3.53991 
1 3.61 5.415 9.025 -3.53991 
1 3.61 3.61 10.83 -3.53991 
1 5.415 5.415 10.83 -3.53991 
1 7.22 5.415 9.025 -3.53991 
1 7.22 3.61 10.83 -3.53991 
1 9.025 3.61 9.025 -3.53991 
1 10.83 5.415 9.025 -3.53991 
1 9.025 5.415 10.83 -3.53991 
1 10.83 3.61 10.83 -3.53991 
1 12.635 3.61 9.025 -3.53991 
1 12.635 5.415 10.83 -3.53991 
1 14.44 5.415 9.025 -3.53991 
1 14.44 3.61 10.83 -3.53991 
1 16.245 3.61 9.025 -3.53991 
1 18.05 5.415 9.025 -3.53991 
1 16.245 5.415 10.83 -3.53991 
1 18.05 3.61 10.83 -3.53991 
1 19.855 3.61 9.025 -3.53991 
1 19.855 5.415 10.83 -3.53991 
1 1.805 7.22 9.025 -3.53991 
1 0 7.22 10.83 -3.53991 
1 5.415 7.22 9.025 -3.53991 
1 3.61 7.22 10.83 -3.53991 
1 7.22 7.22 10.83 -3.53991 
1 9.025 7.22 9.025 -3.53991 
1 10.83 7.22 10.83 -3.53991 
1 12.635 7.22 9.025 -3.53991 
1 14.44 7.22 10.83 -3.53991 
1 16.245 7.22 9.025 -3.53991 
1 18.05 7.22 10.83 -3.53991 
1 19.855 7.22 9.025 -3.53991 
1 0 9.025 9.025 -3.53991 
1 1.805 10.83 9.025 -3.53991 
1 1.805 9.025 10.83 -3.53991 
1 0 10.83 10.83 -3.53991 
1 3.61 9.025 9.025 -3.53991 
1 5.415 10.83 9.025 -3.53991 
1 5.415 9.025 10.83 -3.53991 
1 3.61 10.83 10.83 -3.53991 
1 7.22 9.025 9.025 -3.53991 
1 7.22 10.83 10.83 -3.53991 
1 10.83 9.025 9.025 -3.53991 
1 9.025 10.83 9.025 -3.53991 
1 9.025 9.025 10.83 -3.53991 
1 10.83 10.83 10.83 -3.53991 
1 12.635 10.83 9.025 -3.53991 
1 12.635 9.025 10.83 -3.53991 
1 14.44 9.025 9.025 -3.53991 
1 14.44 10.83 10.83 -3.53991 
1 18.05 9.025 9.025 -3.53991 
1 16.245 10.83 9.025 -3.53991 
1 16.245 9.025 10.83 -3.53991 
1 18.05 10.83 10.83 -3.53991 
1 19.855 10.83 9.025 -3.53991 
1 19.855 9.025 10.83 -3.53991 
1 0 12.635 9.025 -3.53991 
1 1.805 12.635 10.83 -3.53991 
1 3.61 12.635 9.025 -3.53991 
1 5.415 12.635 10.83 -3.53991 
1 7.22 12.635 9.025 -3.53991 
1 10.83 12.635 9.025 -3.53991 
1 9.025 12.635 10.83 -3.53991 
1 12.635 12.635 10.83 -3.53991 
1 14.44 12.635 9.025 -3.53991 
1 18.05 12.635 9.025 -3.53991 
1 16.245 12.635 10.83 -3.53991 
1 19.855 12.635 10.83 -3.53991 
1 1.805 14.44 9.025 -3.53991 
1 0 14.44 10.83 -3.53991 
1 5.415 14.44 9.025 -3.53991 
1 3.61 14.44 10.83 -3.53991 
1 7.22 14.44 10.83 -3.53991 
1 9.025 14.44 9.025 -3.53991 
1 10.83 14.44 10.83 -3.53991 
1 12.635 14.44 9.025 -3.53991 
1 14.44 14.44 10.83 -3.53991 
1 16.245 14.44 9.025 -3.53991 
1 18.05 14.44 10.83 -3.53991 
1 19.855 14.44 9.025 -3.53991 
1 0 16.245 9.025 -3.53991 
1 1.805 18.05 9.025 -3.53991 
1 1.805 16.245 10.83 -3.53991 
1 0 18.05 10.83 -3.53991 
1 3.61 16.245 9.025 -3.53991 
1 5.415 18.05 9.025 -3.53991 
1 5.415 16.245 10.83 -3.53991 
1 3.61 18.05 10.83 -3.53991 
1 7.22 16.245 9.025 -3.53991 
1 7.22 18.05 10.83 -3.53991 
1 10.83 16.245 9.025 -3.53991 
1 9.025 18.05 9.025 -3.53991 
1 9.025 16.245 10.83 -3.53991 
1 10.83 18.05 10.83 -3.53991 
1 12.635 18.05 9.025 -3.53991 
1 12.635 16.245 10.83 -3.53991 
1 14.44 16.245 9.025 -3.53991 
1 14.44 18.05 10.83 -3.53991 
1 18.05 16.245 9.025 -3.53991 
1 16.245 18.05 9.025 -3.53991 
1 16.245 16.245 10.83 -3.53991 
1 18.05 18.05 10.83 -3.53991 
1 19.855 18.05 9.025 -3.53991 
1 19.855 16.245 10.83 -3.53991 
1 0 19.855 9.025 -3.53991 
1 1.805 19.855 10.83 -3.53991 
1 3.61 19.855 9.025 -3.53991 
1 5.415 19.855 10.83 -3.53991 
1 7.22 19.855 9.025 -3.53991 
1 10.83 19.855 9.025 -3.53991 
1 9.025 19.855 10.83 -3.53991 
1 12.635 19.855 10.83 -3.53991 
1 14.44 19.855 9.025 -3.53991 
1 18.05 19.855 9.025 -3.53991 
1 16.245 19.855 10.83 -3.53991 
1 19.855 19.855 10.83 -3.53991 
1 1.805 0 12.635 -3.53991 
1 0 1.805 12.635 -3.53991 
1 5.415 0 12.635 -3.53991 
1 3.61 1.805 12.635 -3.53991 
1 7.22 1.805 12.635 -3.53991 
1 9.025 0 12.635 -3.53991 
1 10.83 1.805 12.635 -3.53991 
1 12.635 0 12.635 -3.53991 
1 14.44 1.805 12.635 -3.53991 
1 16.245 0 12.635 -3.53991 
1 18.05 1.805 12.635 -3.53991 
1 19.855 0 12.635 -3.53991 
1 1.805 3.61 12.635 -3.53991 
1 0 5.415 12.635 -3.53991 
1 5.415 3.61 12.635 -3.53991 
1 3.61 5.415 12.635 -3.53991 
1 7.22 5.415 12.635 -3.53991 
1 9.025 3.61 12.635 -3.53991 
1 10.83 5.415 12.635 -3.53991 
1 12.635 3.61 12.635 -3.53991 
1 14.44 5.415 12.635 -3.53991 
1 16.245 3.61 12.635 -3.53991 
1 18.05 5.415 12.635 -3.53991 
1 19.855 3.61 12.635 -3.53991 
1 1.805 7.22 12.635 -3.53991 
1 5.415 7.22 12.635 -3.53991 
1 9.025 7.22 12.635 -3.53991 
1 12.635 7.22 12.635 -3.53991 
1 16.245 7.22 12.635 -3.53991 
1 19.855 7.22 12.635 -3.53991 
1 0 9.025 12.635 -3.53991 
1 1.805 10.83 12.635 -3.53991 
1 3.61 9.025 12.635 -3.53991 
1 5.415 10.83 12.635 -3.53991 
1 7.22 9.025 12.635 -3.53991 
1 10.83 9.025 12.635 -3.53991 
1 9.025 10.83 12.635 -3.53991 
1 12.635 10.83 12.635 -3.53991 
1 14.44 9.025 12.635 -3.53991 
1 18.05 9.025 12.635 -3.53991 
1 16.245 10.83 12.635 -3.53991 
1 19.855 10.83 12.635 -3.53991 
1 0 12.635 12.635 -3.53991 
1 3.61 12.635 12.635 -3.53991 
1 7.22 12.635 12.635 -3.53991 
1 10.83 12.635 12.635 -3.53991 
1 14.44 12.635 12.635 -3.53991 
1 18.05 12.635 12.635 -3.53991 
1 1.805 14.44 12.635 -3.53991 
1 5.415 14.44 12.635 -3.53991 
1 9.025 14.44 12.635 -3.53991 
1 12.635 14.44 12.635 -3.53991 
1 16.245 14.44 12.635 -3.53991 
1 19.855 14.44 12.635 -3.53991 
1 0 16.245 12.635 -3.53991 
1 1.805 18.05 12.635 -3.53991 
1 3.61 16.245 12.635 -3.53991 
1 5.415 18.05 12.635 -3.53991 
1 7.22 16.245 12.635 -3.53991 
1 10.83 16.245 12.635 -3.53991 
1 9.025 18.05 12.635 -3.53991 
1 12.635 18.05 12.635 -3.53991 
1 14.44 16.245 12.635 -3.53991 
1 18.05 16.245 12.635 -3.53991 
1 16.245 18.05 12.635 -3.53991 
1 19.855 18.05 12.635 -3.53991 
1 0 19.855 12.635 -3.53991 
1 3.61 19.855 12.635 -3.53991 
1 7.22 19.855 12.635 -3.53991 
1 10.83 19.855 12.635 -3.53991 
1 14.44 19.855 12.635 -3.53991 
1 18.05 19.855 12.635 -3.53991 
1 0 0 14.44 -3.53991 
1 1.805 1.805 14.44 -3.53991 
1 3.61 0 14.44 -3.53991 
1 5.415 1.805 14.44 -3.53991 
1 7.22 0 14.44 -3.53991 
1 9.025 1.805 14.44 -3.53991 
1 10.83 0 14.44 -3.53991 
1 12.635 1.805 14.44 -3.53991 
1 14.44 0 14.44 -3.53991 
1 16.245 1.805 14.44 -3.53991 
1 18.05 0 14.44 -3.53991 
1 19.855 1.805 14.44 -3.53991 
1 0 3.61 14.44 -3.53991 
1 1.805 5.415 14.44 -3.53991 
1 3.61 3.61 14.44 -3.53991 
1 5.415 5.415 14.44 -3.53991 
1 7.22 3.61 14.44 -3.53991 
1 9.025 5.415 14.44 -3.53991 
1 10.83 3.61 14.44 -3.53991 
1 12.635 5.415 14.44 -3.53991 
1 14.44 3.61 14.44 -3.53991 
1 16.245 5.415 14.44 -3.53991 
1 18.05 3.61 14.44 -3.53991 
1 19.855 5.415 14.44 -3.53991 
1 0 7.22 14.44 -3.53991 
1 3.61 7.22 14.44 -3.53991 
1 7.22 7.22 14.44 -3.53991 
1 10.83 7.22 14.44 -3.53991 
1 14.44 7.22 14.44 -3.53991 
1 18.05 7.22 14.44 -3.53991 
1 1.805 9.025 14.44 -3.53991 
1 0 10.83 14.44 -3.53991 
1 5.415 9.025 14.44 -3.53991 
1 3.61 10.83 14.44 -3.53991 
1 7.22 10.83 14.44 -3.53991 
1 9.025 9.025 14.44 -3.53991 
1 10.83 10.83 14.44 -3.53991 
1 12.635 9.025 14.44 -3.53991 
1 14.44 10.83 14.44 -3.53991 
1 16.245 9.025 14.44 -3.53991 
1 18.05 10.83 14.44 -3.53991 
1 19.855 9.025 14.44 -3.53991 
1 1.805 12.635 14.44 -3.53991 
1 5.415 12.635 14.44 -3.53991 
1 9.025 12.635 14.44 -3.53991 
1 12.635 12.635 14.44 -3.53991 
1 16.245 12.635 14.44 -3.53991 
1 19.855 12.635 14.44 -3.53991 
1 0 14.44 14.44 -3.53991 
1 3.61 14.44 14.44 -3.53991 
1 7.22 14.44 14.44 -3.53991 
1 10.83 14.44 14.44 -3.53991 
1 14.44 14.44 14.44 -3.53991 
1 18.05 14.44 14.44 -3.53991 
1 1.805 16.245 14.44 -3.53991 
1 0 18.05 14.44 -3.53991 
1 5.415 16.245 14.44 -3.53991 
1 3.61 18.05 14.44 -3.53991 
1 7.22 18.05 14.44 -3.53991 
1 9.025 16.245 14.44 -3.53991 
1 10.83 18.05 14.44 -3.53991 
1 12.635 16.245 14.44 -3.53991 
1 14.44 18.05 14.44 -3.53991 
1 16.245 16.245 14.44 -3.53991 
1 18.05 18.05 14.44 -3.53991 
1 19.855 16.245 14.44 -3.53991 
1 1.805 19.855 14.44 -3.53991 
1 5.415 19.855 14.44 -3.53991 
1 9.025 19.855 14.44 -3.53991 
1 12.635 19.855 14.44 -3.53991 
1 16.245 19.855 14.44 -3.53991 
1 19.855 19.855 14.44 -3.53991 
1 1.805 0 16.245 -3.53991 
1 0 1.805 16.245 -3.53991 
1 0 0 18.05 -3.53991 
1 1.805 1.805 18.05 -3.53991 
1 5.415 0 16.245 -3.53991 
1 3.61 1.805 16.245 -3.53991 
1 3.61 0 18.05 -3.53991 
1 5.415 1.805 18.05 -3.53991 
1 7.22 1.805 16.245 -3.53991 
1 7.22 0 18.05 -3.53991 
1 9.025 0 16.245 -3.53991 
1 10.83 1.805 16.245 -3.53991 
1 9.025 1.805 18.05 -3.53991 
1 10.83 0 18.05 -3.53991 
1 12.635 0 16.245 -3.53991 
1 12.635 1.805 18.05 -3.53991 
1 14.44 1.805 16.245 -3.53991 
1 14.44 0 18.05 -3.53991 
1 16.245 0 16.245 -3.53991 
1 18.05 1.805 16.245 -3.53991 
1 16.245 1.805 18.05 -3.53991 
1 18.05 0 18.05 -3.53991 
1 19.855 0 16.245 -3.53991 
1 19.855 1.805 18.05 -3.53991 
1 1.805 3.61 16.245 -3.53991 
1 0 5.415 16.245 -3.53991 
1 0 3.61 18.05 -3.53991 
1 1.805 5.415 18.05 -3.53991 
1 5.415 3.61 16.245 -3.53991 
1 3.61 5.415 16.245 -3.53991 
1 3.61 3.61 18.05 -3.53991 
1 5.415 5.415 18.05 -3.53991 
1 7.22 5.415 16.245 -3.53991 
1 7.22 3.61 18.05 -3.53991 
1 9.025 3.61 16.245 -3.53991 
1 10.83 5.415 16.245 -3.53991 
1 9.025 5.415 18.05 -3.53991 
1 10.83 3.61 18.05 -3.53991 
1 12.635 3.61 16.245 -3.53991 
1 12.635 5.415 18.05 -3.53991 
1 14.44 5.415 16.245 -3.53991 
1 14.44 3.61 18.05 -3.53991 
1 16.245 3.61 16.245 -3.53991 
1 18.05 5.415 16.245 -3.53991 
1 16.245 5.415 18.05 -3.53991 
1 18.05 3.61 18.05 -3.53991 
1 19.855 3.61 16.245 -3.53991 
1 19.855 5.415 18.05 -3.53991 
1 1.805 7.22 16.245 -3.53991 
1 0 7.22 18.05 -3.53991 
1 5.415 7.22 16.245 -3.53991 
1 3.61 7.22 18.05 -3.53991 
1 7.22 7.22 18.05 -3.53991 
1 9.025 7.22 16.245 -3.53991 
1 10.83 7.22 18.05 -3.53991 
1 12.635 7.22 16.245 -3.53991 
1 14.44 7.22 18.05 -3.53991 
1 16.245 7.22 16.245 -3.53991 
1 18.05 7.22 18.05 -3.53991 
1 19.855 7.22 16.245 -3.53991 
1 0 9.025 16.245 -3.53991 
1 1.805 10.83 16.245 -3.53991 
1 1.805 9.025 18.05 -3.53991 
1 0 10.83 18.05 -3.53991 
1 3.61 9.025 16.245 -3.53991 
1 5.415 10.83 16.245 -3.53991 
1 5.415 9.025 18.05 -3.53991 
1 3.61 10.83 18.05 -3.53991 
1 7.22 9.025 16.245 -3.53991 
1 7.22 10.83 18.05 -3.53991 
1 10.83 9.025 16.245 -3.53991 
1 9.025 10.83 16.245 -3.53991 
1 9.025 9.025 18.05 -3.53991 
1 10.83 10.83 18.05 -3.53991 
1 12.635 10.83 16.245 -3.53991 
1 12.635 9.025 18.05 -3.53991 
1 14.44 9.025 16.245 -3.53991 
1 14.44 10.83 18.05 -3.53991 
1 18.05 9.025 16.245 -3.53991 
1 16.245 10.83 16.245 -3.53991 
1 16.245 9.025 18.05 -3.53991 
1 18.05 10.83 18.05 -3.53991 
1 19.855 10.83 16.245 -3.53991 
1 19.855 9.025 18.05 -3.53991 
1 0 12.635 16.245 -3.53991 
1 1.805 12.635 18.05 -3.53991 
1 3.61 12.635 16.245 -3.53991 
1 5.415 12.635 18.05 -3.53991 
1 7.22 12.635 16.245 -3.53991 
1 10.83 12.635 16.245 -3.53991 
1 9.025 12.635 18.05 -3.53991 
1 12.635 12.635 18.05 -3.53991 
1 14.44 12.635 16.245 -3.53991 
1 18.05 12.635 16.245 -3.53991 
1 16.245 12.635 18.05 -3.53991 
1 19.855 12.635 18.05 -3.53991 
1 1.805 14.44 16.245 -3.53991 
1 0 14.44 18.05 -3.53991 
1 5.415 14.44 16.245 -3.53991 
1 3.61 14.44 18.05 -3.53991 
1 7.22 14.44 18.05 -3.53991 
1 9.025 14.44 16.245 -3.53991 
1 10.83 14.44 18.05 -3.53991 
1 12.635 14.44 16.245 -3.53991 
1 14.44 14.44 18.05 -3.53991 
1 16.245 14.44 16.245 -3.53991 
1 18.05 14.44 18.05 -3.53991 
1 19.855 14.44 16.245 -3.53991 
1 0 16.245 16.245 -3.53991 
1 1.805 18.05 16.245 -3.53991 
1 1.805 16.245 18.05 -3.53991 
1 0 18.05 18.05 -3.53991 
1 3.61 16.245 16.245 -3.53991 
1 5.415 18.05 16.245 -3.53991 
1 5.415 16.245 18.05 -3.53991 
1 3.61 18.05 18.05 -3.53991 
1 7.22 16.245 16.245 -3.53991 
1 7.22 18.05 18.05 -3.53991 
1 10.83 16.245 16.245 -3.53991 
1 9.025 18.05 16.245 -3.53991 
1 9.025 16.245 18.05 -3.53991 
1 10.83 18.05 18.05 -3.53991 
1 12.635 18.05 16.245 -3.53991 
1 12.635 16.245 18.05 -3.53991 
1 14.44 16.245 16.245 -3.53991 
1 14.44 18.05 18.05 -3.53991 
1 18.05 16.245 16.245 -3.53991 
1 16.245 18.05 16.245 -3.53991 
1 16.245 16.245 18.05 -3.53991 
1 18.05 18.05 18.05 -3.53991 
1 19.855 18.05 16.245 -3.53991 
1 19.855 16.245 18.05 -3.53991 
1 0 19.855 16.245 -3.53991 
1 1.805 19.855 18.05 -3.53991 
1 3.61 19.855 16.245 -3.53991 
1 5.415 19.855 18.05 -3.53991 
1 7.22 19.855 16.245 -3.53991 
1 10.83 19.855 16.245 -3.53991 
1 9.025 19.855 18.05 -3.53991 
1 12.635 19.855 18.05 -3.53991 
1 14.44 19.855 16.245 -3.53991 
1 18.05 19.855 16.245 -3.53991 
1 16.245 19.855 18.05 -3.53991 
1 19.855 19.855 18.05 -3.53991 
1 1.805 0 19.855 -3.53991 
1 0 1.805 19.855 -3.53991 
1 5.415 0 19.855 -3.53991 
1 3.61 1.805 19.855 -3.53991 
1 7.22 1.805 19.855 -3.53991 
1 9.025 0 19.855 -3.53991 
1 10.83 1.805 19.855 -3.53991 
1 12.635 0 19.855 -3.53991 
1 14.44 1.805 19.855 -3.53991 
1 16.245 0 19.855 -3.53991 
1 18.05 1.805 19.855 -3.53991 
1 19.855 0 19.855 -3.53991 
1 1.805 3.61 19.855 -3.53991 
1 0 5.415 19.855 -3.53991 
1 5.415 3.61 19.855 -3.53991 
1 3.61 5.415 19.855 -3.53991 
1 7.22 5.415 19.855 -3.53991 
1 9.025 3.61 19.855 -3.53991 
1 10.83 5.415 19.855 -3.53991 
1 12.635 3.61 19.855 -3.53991 
1 14.44 5.415 19.855 -3.53991 
1 16.245 3.61 19.855 -3.53991 
1 18.05 5.415 19.855 -3.53991 
1 19.855 3.61 19.855 -3.53991 
1 1.805 7.22 19.855 -3.53991 
1 5.415 7.22 19.855 -3.53991 
1 9.025 7.22 19.855 -3.53991 
1 12.635 7.22 19.855 -3.53991 
1 16.245 7.22 19.855 -3.53991 
1 19.855 7.22 19.855 -3.53991 
1 0 9.025 19.855 -3.53991 
1 1.805 10.83 19.855 -3.53991 
1 3.61 9.025 19.855 -3.53991 
1 5.415 10.83 19.855 -3.53991 
1 7.22 9.025 19.855 -3.53991 
1 10.83 9.025 19.855 -3.53991 
1 9.025 10.83 19.855 -3.53991 
1 12.635 10.83 19.855 -3.53991 
1 14.44 9.025 19.855 -3.53991 
1 18.05 9.025 19.855 -3.53991 
1 16.245 10.83 19.855 -3.53991 
1 19.855 10.83 19.855 -3.53991 
1 0 12.635 19.855 -3.53991 
1 3.61 12.635 19.855 -3.53991 
1 7.22 12.635 19.855 -3.53991 
1 10.83 12.635 19.855 -3.53991 
1 14.44 12.635 19.855 -3.53991 
1 18.05 12.635 19.855 -3.53991 
1 1.805 14.44 19.855 -3.53991 
1 5.415 14.44 19.855 -3.53991 
1 9.025 14.44 19.855 -3.53991 
1 12.635 14.44 19.855 -3.53991 
1 16.245 14.44 19.855 -3.53991 
1 19.855 14.44 19.855 -3.53991 
1 0 16.245 19.855 -3.53991 
1 1.805 18.05 19.855 -3.53991 
1 3.61 16.245 19.855 -3.53991 
1 5.415 18.05 19.855 -3.53991 
1 7.22 16.245 19.855 -3.53991 
1 10.83 16.245 19.855 -3.53991 
1 9.025 18.05 19.855 -3.53991 
1 12.635 18.05 19.855 -3.53991 
1 14.44 16.245 19.855 -3.53991 
1 18.05 16.245 19.855 -3.53991 
1 16.245 18.05 19.855 -3.53991 
1 19.855 18.05 19.855 -3.53991 
1 0 19.855 19.855 -3.53991 
1 3.61 19.855 19.855 -3.53991 
1 7.22 19.855 19.855 -3.53991 
1 10.83 19.855 19.855 -3.53991 
1 14.44 19.855 19.855 -3.53991 
1 18.05 19.855 19.855 -3.53991 
ITEM: TIMESTEP
100
ITEM: NUMBER OF ATOMS
864
ITEM: BOX BOUNDS pp pp pp
0 21.66
0 21.66
0 21.66
ITEM: ATOMS type x y z c_ep 
1 0.0120488 21.6567 21.6037 -3.53014 
1 1.73168 1.8812 21.6176 -3.51862 
1 1.72865 21.5261 1.75644 -3.53793 
1 0.0384164 1.81554 1.8258 -3.52726 
1 3.56005 -0.00171404 21.544 -3.51408 
1 5.45685 1.8492 21.5834 -3.50671 
1 5.41681 21.5868 1.72614 -3.54422 
1 3.5283 1.75832 1.66929 -3.53871 
1 7.18217 21.6099 21.5925 -3.52006 
1 7.17421 1.829 1.77988 -3.5262 
1 8.93793 1.90202 0.0224522 -3.50497 
1 8.94246 -0.0208246 1.77735 -3.53342 
1 10.8367 -0.0287347 0.0781087 -3.53286 
1 10.8049 1.73273 1.87125 -3.52166 
1 12.6194 1.77518 0.0322032 -3.52707 
1 12.6921 21.5014 1.90057 -3.51529 
1 14.462 21.6726 21.6035 -3.51772 
1 14.4142 1.75044 1.75052 -3.53683 
1 16.2672 1.87298 -0.00507971 -3.51145 
1 16.1918 21.587 1.74765 -3.50264 
1 18.0307 0.0712629 0.0947286 -3.51476 
1 18.067 1.83052 1.86755 -3.5005 
1 19.8169 1.71547 -0.0231671 -3.52797 
1 19.9663 0.0211521 1.90373 -3.50706 
1 21.5298 3.55831 21.6192 -3.51185 
1 1.83761 5.37548 21.6277 -3.54073 
1 1.80046 3.53249 1.78024 -3.50688 
1 -0.00735054 5.39552 1.86537 -3.51935 
1 3.59219 3.57668 -0.0280615 -3.4909 
1 5.34436 5.54034 21.6242 -3.52815 
1 5.40978 3.66101 1.79848 -3.52179 
1 3.54731 5.39102 1.81966 -3.53212 
1 7.3064 3.69682 -0.00646379 -3.49982 
1 7.30303 5.57314 1.74791 -3.50251 
1 9.0796 5.49065 21.589 -3.49869 
1 9.00411 3.68719 1.78372 -3.53205 
1 10.7481 3.66137 0.00220282 -3.53144 
1 10.8552 5.44072 1.95762 -3.5214 
1 12.5492 5.45052 0.0587509 -3.53444 
1 12.5704 3.6091 1.82483 -3.52268 
1 14.3927 3.65468 0.102724 -3.50029 
1 14.4637 5.42956 1.83484 -3.5193 
1 16.2439 5.38088 21.6787 -3.548 
1 16.2501 3.62941 1.84557 -3.5085 
1 18.053 3.58617 0.142013 -3.50771 
1 18.0105 5.40828 1.87895 -3.52457 
1 19.8677 5.3416 0.0729819 -3.51065 
1 19.851 3.56122 1.78558 -3.51096 
1 0.0114379 7.17328 0.0721445 -3.53664 
1 1.71743 7.17553 1.89329 -3.48989 
1 3.55064 7.27964 0.0742021 -3.51591 
1 5.33785 7.26868 1.79855 -3.52767 
1 7.27247 7.23531 21.6828 -3.52111 
1 9.08538 7.19557 1.8163 -3.50229 
1 10.7835 7.23626 21.6602 -3.50679 
1 12.6381 7.26893 1.91325 -3.51997 
1 14.3605 7.23557 21.6106 -3.53646 
1 16.244 7.16724 1.78269 -3.52416 
1 18.1313 7.1658 21.6492 -3.54131 
1 19.9051 7.13111 1.80757 -3.51508 
1 1.78659 8.9865 0.120997 -3.51055 
1 21.6137 8.98704 1.7487 -3.52358 
1 21.6091 10.8901 21.6225 -3.54787 
1 1.69659 10.8237 1.80222 -3.50266 
1 5.42199 9.03717 0.0425544 -3.53913 
1 3.60078 9.07761 1.85455 -3.50414 
1 3.51928 10.7486 21.6697 -3.52499 
1 5.40147 10.8266 1.72853 -3.5157 
1 7.2462 8.94558 1.80607 -3.51661 
1 7.27834 10.8196 21.681 -3.54319 
1 9.12502 9.07568 0.0359399 -3.53716 
1 10.9394 9.03454 1.84693 -3.51846 
1 9.10438 10.8289 1.8221 -3.52403 
1 10.8799 10.9118 21.6952 -3.52123 
1 12.6867 9.08789 21.5933 -3.52659 
1 12.5951 10.916 1.70931 -3.49202 
1 14.412 8.9839 1.75022 -3.51378 
1 14.4805 10.8172 21.5739 -3.54421 
1 16.2704 8.9682 21.5831 -3.55145 
1 18.1329 9.02985 1.73146 -3.53694 
1 16.3019 10.8125 1.75848 -3.52367 
1 18.0876 10.8195 21.6032 -3.51133 
1 19.8343 9.02887 21.5471 -3.51871 
1 19.8767 10.8435 1.72548 -3.52136 
1 1.80447 12.6523 21.6385 -3.52217 
1 0.0199755 12.6175 1.78915 -3.53593 
1 5.3575 12.5933 0.0162556 -3.51537 
1 3.50139 12.5166 1.82087 -3.49994 
1 7.20692 12.6373 1.84796 -3.54793 
1 8.97487 12.6907 0.0687649 -3.54002 
1 10.8202 12.7754 1.81364 -3.53529 
1 12.7059 12.6464 0.0765485 -3.50156 
1 14.4791 12.6362 1.82087 -3.51545 
1 16.3152 12.6316 21.6107 -3.54268 
1 18.0656 12.5631 1.77376 -3.51747 
1 19.7242 12.6797 -0.0077972 -3.47849 
1 21.6759 14.4842 21.6564 -3.52401 
1 1.80836 14.4486 1.8529 -3.52104 
1 3.6207 14.4005 0.187737 -3.53129 
1 5.42293 14.4281 1.89062 -3.52479 
1 7.15679 14.5134 0.0481947 -3.51715 
1 9.00466 14.5376 1.87959 -3.49701 
1 10.85 14.4373 21.6495 -3.50949 
1 12.6823 14.4842 1.74436 -3.4939 
1 14.5245 14.3762 0.0279534 -3.51937 
1 16.2604 14.3731 1.81952 -3.53431 
1 18.0616 14.4287 21.6179 -3.48563 
1 19.8648 14.4484 1.72657 -3.52676 
1 1.86002 16.2315 0.0739809 -3.51508 
1 0.065652 16.3665 1.81019 -3.51279 
1 0.133458 18.0513 -0.0210155 -3.52412 
1 1.91492 18.0653 1.74862 -3.50922 
1 5.40152 16.3187 0.0895925 -3.52453 
1 3.65236 16.2726 1.87115 -3.51761 
1 3.55131 18.0289 21.6013 -3.49812 
1 5.4218 18.0229 1.8383 -3.52804 
1 7.22986 16.2102 1.8106 -3.51302 
1 7.25453 17.9711 21.6049 -3.54559 
1 9.0819 16.1199 21.6523 -3.51477 
1 10.7823 16.2633 1.85043 -3.5313 
1 9.01855 18.0452 1.81565 -3.52776 
1 10.8354 18.0874 0.0523161 -3.51539 
1 12.6369 16.2127 0.00861368 -3.54769 