# LAMMPS data file for case4: Processed by cut_cylinder,  boxsize      39.7100         39.7100         36.1000    

640 atoms

1 atom types

-19.855000 19.855000 xlo xhi
-19.855000 19.855000 ylo yhi
0.000000 36.100000 zlo zhi

Masses

1 63.55

Atoms

 1 1 -4.963750 -4.963750 -17.598700
 2 1 -4.963750 -4.963750 -13.988800
 3 1 -4.963750 -4.963750 -10.378700
 4 1 -4.963750 -4.963750 -6.768750
 5 1 -4.963750 -4.963750 -3.158750
 6 1 -4.963750 -4.963750 0.451250
 7 1 -4.963750 -4.963750 4.061250
 8 1 -4.963750 -4.963750 7.671250
 9 1 -4.963750 -4.963750 11.281200
 10 1 -4.963750 -4.963750 14.891200
 11 1 -6.768750 -3.158750 -17.598700
 12 1 -6.768750 -1.353750 -15.793700
 13 1 -4.963750 -3.158750 -15.793700
 14 1 -4.963750 -1.353750 -17.598700
 15 1 -6.768750 -3.158750 -13.988800
 16 1 -6.768750 -1.353750 -12.183800
 17 1 -4.963750 -3.158750 -12.183800
 18 1 -4.963750 -1.353750 -13.988800
 19 1 -6.768750 -3.158750 -10.378700
 20 1 -6.768750 -1.353750 -8.573750
 21 1 -4.963750 -3.158750 -8.573750
 22 1 -4.963750 -1.353750 -10.378700
 23 1 -6.768750 -3.158750 -6.768750
 24 1 -6.768750 -1.353750 -4.963750
 25 1 -4.963750 -3.158750 -4.963750
 26 1 -4.963750 -1.353750 -6.768750
 27 1 -6.768750 -3.158750 -3.158750
 28 1 -6.768750 -1.353750 -1.353750
 29 1 -4.963750 -3.158750 -1.353750
 30 1 -4.963750 -1.353750 -3.158750
 31 1 -6.768750 -3.158750 0.451250
 32 1 -6.768750 -1.353750 2.256250
 33 1 -4.963750 -3.158750 2.256250
 34 1 -4.963750 -1.353750 0.451250
 35 1 -6.768750 -3.158750 4.061250
 36 1 -6.768750 -1.353750 5.866250
 37 1 -4.963750 -3.158750 5.866250
 38 1 -4.963750 -1.353750 4.061250
 39 1 -6.768750 -3.158750 7.671250
 40 1 -6.768750 -1.353750 9.476250
 41 1 -4.963750 -3.158750 9.476250
 42 1 -4.963750 -1.353750 7.671250
 43 1 -6.768750 -3.158750 11.281200
 44 1 -6.768750 -1.353750 13.086300
 45 1 -4.963750 -3.158750 13.086300
 46 1 -4.963750 -1.353750 11.281200
 47 1 -6.768750 -3.158750 14.891200
 48 1 -6.768750 -1.353750 16.696300
 49 1 -4.963750 -3.158750 16.696300
 50 1 -4.963750 -1.353750 14.891200
 51 1 -6.768750 0.451250 -17.598700
 52 1 -6.768750 2.256250 -15.793700
 53 1 -4.963750 0.451250 -15.793700
 54 1 -4.963750 2.256250 -17.598700
 55 1 -6.768750 0.451250 -13.988800
 56 1 -6.768750 2.256250 -12.183800
 57 1 -4.963750 0.451250 -12.183800
 58 1 -4.963750 2.256250 -13.988800
 59 1 -6.768750 0.451250 -10.378700
 60 1 -6.768750 2.256250 -8.573750
 61 1 -4.963750 0.451250 -8.573750
 62 1 -4.963750 2.256250 -10.378700
 63 1 -6.768750 0.451250 -6.768750
 64 1 -6.768750 2.256250 -4.963750
 65 1 -4.963750 0.451250 -4.963750
 66 1 -4.963750 2.256250 -6.768750
 67 1 -6.768750 0.451250 -3.158750
 68 1 -6.768750 2.256250 -1.353750
 69 1 -4.963750 0.451250 -1.353750
 70 1 -4.963750 2.256250 -3.158750
 71 1 -6.768750 0.451250 0.451250
 72 1 -6.768750 2.256250 2.256250
 73 1 -4.963750 0.451250 2.256250
 74 1 -4.963750 2.256250 0.451250
 75 1 -6.768750 0.451250 4.061250
 76 1 -6.768750 2.256250 5.866250
 77 1 -4.963750 0.451250 5.866250
 78 1 -4.963750 2.256250 4.061250
 79 1 -6.768750 0.451250 7.671250
 80 1 -6.768750 2.256250 9.476250
 81 1 -4.963750 0.451250 9.476250
 82 1 -4.963750 2.256250 7.671250
 83 1 -6.768750 0.451250 11.281200
 84 1 -6.768750 2.256250 13.086300
 85 1 -4.963750 0.451250 13.086300
 86 1 -4.963750 2.256250 11.281200
 87 1 -6.768750 0.451250 14.891200
 88 1 -6.768750 2.256250 16.696300
 89 1 -4.963750 0.451250 16.696300
 90 1 -4.963750 2.256250 14.891200
 91 1 -6.768750 4.061250 -17.598700
 92 1 -4.963750 4.061250 -15.793700
 93 1 -4.963750 5.866250 -17.598700
 94 1 -6.768750 4.061250 -13.988800
 95 1 -4.963750 4.061250 -12.183800
 96 1 -4.963750 5.866250 -13.988800
 97 1 -6.768750 4.061250 -10.378700
 98 1 -4.963750 4.061250 -8.573750
 99 1 -4.963750 5.866250 -10.378700
 100 1 -6.768750 4.061250 -6.768750
 101 1 -4.963750 4.061250 -4.963750
 102 1 -4.963750 5.866250 -6.768750
 103 1 -6.768750 4.061250 -3.158750
 104 1 -4.963750 4.061250 -1.353750
 105 1 -4.963750 5.866250 -3.158750
 106 1 -6.768750 4.061250 0.451250
 107 1 -4.963750 4.061250 2.256250
 108 1 -4.963750 5.866250 0.451250
 109 1 -6.768750 4.061250 4.061250
 110 1 -4.963750 4.061250 5.866250
 111 1 -4.963750 5.866250 4.061250
 112 1 -6.768750 4.061250 7.671250
 113 1 -4.963750 4.061250 9.476250
 114 1 -4.963750 5.866250 7.671250
 115 1 -6.768750 4.061250 11.281200
 116 1 -4.963750 4.061250 13.086300
 117 1 -4.963750 5.866250 11.281200
 118 1 -6.768750 4.061250 14.891200
 119 1 -4.963750 4.061250 16.696300
 120 1 -4.963750 5.866250 14.891200
 121 1 -3.158750 -6.768750 -17.598700
 122 1 -3.158750 -4.963750 -15.793700
 123 1 -1.353750 -6.768750 -15.793700
 124 1 -1.353750 -4.963750 -17.598700
 125 1 -3.158750 -6.768750 -13.988800
 126 1 -3.158750 -4.963750 -12.183800
 127 1 -1.353750 -6.768750 -12.183800
 128 1 -1.353750 -4.963750 -13.988800
 129 1 -3.158750 -6.768750 -10.378700
 130 1 -3.158750 -4.963750 -8.573750
 131 1 -1.353750 -6.768750 -8.573750
 132 1 -1.353750 -4.963750 -10.378700
 133 1 -3.158750 -6.768750 -6.768750
 134 1 -3.158750 -4.963750 -4.963750
 135 1 -1.353750 -6.768750 -4.963750
 136 1 -1.353750 -4.963750 -6.768750
 137 1 -3.158750 -6.768750 -3.158750
 138 1 -3.158750 -4.963750 -1.353750
 139 1 -1.353750 -6.768750 -1.353750
 140 1 -1.353750 -4.963750 -3.158750
 141 1 -3.158750 -6.768750 0.451250
 142 1 -3.158750 -4.963750 2.256250
 143 1 -1.353750 -6.768750 2.256250
 144 1 -1.353750 -4.963750 0.451250
 145 1 -3.158750 -6.768750 4.061250
 146 1 -3.158750 -4.963750 5.866250
 147 1 -1.353750 -6.768750 5.866250
 148 1 -1.353750 -4.963750 4.061250
 149 1 -3.158750 -6.768750 7.671250
 150 1 -3.158750 -4.963750 9.476250
 151 1 -1.353750 -6.768750 9.476250
 152 1 -1.353750 -4.963750 7.671250
 153 1 -3.158750 -6.768750 11.281200
 154 1 -3.158750 -4.963750 13.086300
 155 1 -1.353750 -6.768750 13.086300
 156 1 -1.353750 -4.963750 11.281200
 157 1 -3.158750 -6.768750 14.891200
 158 1 -3.158750 -4.963750 16.696300
 159 1 -1.353750 -6.768750 16.696300
 160 1 -1.353750 -4.963750 14.891200
 161 1 -3.158750 -3.158750 -17.598700
 162 1 -3.158750 -1.353750 -15.793700
 163 1 -1.353750 -3.158750 -15.793700
 164 1 -1.353750 -1.353750 -17.598700
 165 1 -3.158750 -3.158750 -13.988800
 166 1 -3.158750 -1.353750 -12.183800
 167 1 -1.353750 -3.158750 -12.183800
 168 1 -1.353750 -1.353750 -13.988800
 169 1 -3.158750 -3.158750 -10.378700
 170 1 -3.158750 -1.353750 -8.573750
 171 1 -1.353750 -3.158750 -8.573750
 172 1 -1.353750 -1.353750 -10.378700
 173 1 -3.158750 -3.158750 -6.768750
 174 1 -3.158750 -1.353750 -4.963750
 175 1 -1.353750 -3.158750 -4.963750
 176 1 -1.353750 -1.353750 -6.768750
 177 1 -3.158750 -3.158750 -3.158750
 178 1 -3.158750 -1.353750 -1.353750
 179 1 -1.353750 -3.158750 -1.353750
 180 1 -1.353750 -1.353750 -3.158750
 181 1 -3.158750 -3.158750 0.451250
 182 1 -3.158750 -1.353750 2.256250
 183 1 -1.353750 -3.158750 2.256250
 184 1 -1.353750 -1.353750 0.451250
 185 1 -3.158750 -3.158750 4.061250
 186 1 -3.158750 -1.353750 5.866250
 187 1 -1.353750 -3.158750 5.866250
 188 1 -1.353750 -1.353750 4.061250
 189 1 -3.158750 -3.158750 7.671250
 190 1 -3.158750 -1.353750 9.476250
 191 1 -1.353750 -3.158750 9.476250
 192 1 -1.353750 -1.353750 7.671250
 193 1 -3.158750 -3.158750 11.281200
 194 1 -3.158750 -1.353750 13.086300
 195 1 -1.353750 -3.158750 13.086300
 196 1 -1.353750 -1.353750 11.281200
 197 1 -3.158750 -3.158750 14.891200
 198 1 -3.158750 -1.353750 16.696300
 199 1 -1.353750 -3.158750 16.696300
 200 1 -1.353750 -1.353750 14.891200
 201 1 -3.158750 0.451250 -17.598700
 202 1 -3.158750 2.256250 -15.793700
 203 1 -1.353750 0.451250 -15.793700
 204 1 -1.353750 2.256250 -17.598700
 205 1 -3.158750 0.451250 -13.988800
 206 1 -3.158750 2.256250 -12.183800
 207 1 -1.353750 0.451250 -12.183800
 208 1 -1.353750 2.256250 -13.988800
 209 1 -3.158750 0.451250 -10.378700
 210 1 -3.158750 2.256250 -8.573750
 211 1 -1.353750 0.451250 -8.573750
 212 1 -1.353750 2.256250 -10.378700
 213 1 -3.158750 0.451250 -6.768750
 214 1 -3.158750 2.256250 -4.963750
 215 1 -1.353750 0.451250 -4.963750
 216 1 -1.353750 2.256250 -6.768750
 217 1 -3.158750 0.451250 -3.158750
 218 1 -3.158750 2.256250 -1.353750
 219 1 -1.353750 0.451250 -1.353750
 220 1 -1.353750 2.256250 -3.158750
 221 1 -3.158750 0.451250 0.451250
 222 1 -3.158750 2.256250 2.256250
 223 1 -1.353750 0.451250 2.256250
 224 1 -1.353750 2.256250 0.451250
 225 1 -3.158750 0.451250 4.061250
 226 1 -3.158750 2.256250 5.866250
 227 1 -1.353750 0.451250 5.866250
 228 1 -1.353750 2.256250 4.061250
 229 1 -3.158750 0.451250 7.671250
 230 1 -3.158750 2.256250 9.476250
 231 1 -1.353750 0.451250 9.476250
 232 1 -1.353750 2.256250 7.671250
 233 1 -3.158750 0.451250 11.281200
 234 1 -3.158750 2.256250 13.086300
 235 1 -1.353750 0.451250 13.086300
 236 1 -1.353750 2.256250 11.281200
 237 1 -3.158750 0.451250 14.891200
 238 1 -3.158750 2.256250 16.696300
 239 1 -1.353750 0.451250 16.696300
 240 1 -1.353750 2.256250 14.891200
 241 1 -3.158750 4.061250 -17.598700
 242 1 -3.158750 5.866250 -15.793700
 243 1 -1.353750 4.061250 -15.793700
 244 1 -1.353750 5.866250 -17.598700
 245 1 -3.158750 4.061250 -13.988800
 246 1 -3.158750 5.866250 -12.183800
 247 1 -1.353750 4.061250 -12.183800
 248 1 -1.353750 5.866250 -13.988800
 249 1 -3.158750 4.061250 -10.378700
 250 1 -3.158750 5.866250 -8.573750
 251 1 -1.353750 4.061250 -8.573750
 252 1 -1.353750 5.866250 -10.378700
 253 1 -3.158750 4.061250 -6.768750
 254 1 -3.158750 5.866250 -4.963750
 255 1 -1.353750 4.061250 -4.963750
 256 1 -1.353750 5.866250 -6.768750
 257 1 -3.158750 4.061250 -3.158750
 258 1 -3.158750 5.866250 -1.353750
 259 1 -1.353750 4.061250 -1.353750
 260 1 -1.353750 5.866250 -3.158750
 261 1 -3.158750 4.061250 0.451250
 262 1 -3.158750 5.866250 2.256250
 263 1 -1.353750 4.061250 2.256250
 264 1 -1.353750 5.866250 0.451250
 265 1 -3.158750 4.061250 4.061250
 266 1 -3.158750 5.866250 5.866250
 267 1 -1.353750 4.061250 5.866250
 268 1 -1.353750 5.866250 4.061250
 269 1 -3.158750 4.061250 7.671250
 270 1 -3.158750 5.866250 9.476250
 271 1 -1.353750 4.061250 9.476250
 272 1 -1.353750 5.866250 7.671250
 273 1 -3.158750 4.061250 11.281200
 274 1 -3.158750 5.866250 13.086300
 275 1 -1.353750 4.061250 13.086300
 276 1 -1.353750 5.866250 11.281200
 277 1 -3.158750 4.061250 14.891200
 278 1 -3.158750 5.866250 16.696300
 279 1 -1.353750 4.061250 16.696300
 280 1 -1.353750 5.866250 14.891200
 281 1 -1.353750 7.671250 -15.793700
 282 1 -1.353750 7.671250 -12.183800
 283 1 -1.353750 7.671250 -8.573750
 284 1 -1.353750 7.671250 -4.963750
 285 1 -1.353750 7.671250 -1.353750
 286 1 -1.353750 7.671250 2.256250
 287 1 -1.353750 7.671250 5.866250
 288 1 -1.353750 7.671250 9.476250
 289 1 -1.353750 7.671250 13.086300
 290 1 -1.353750 7.671250 16.696300
 291 1 0.451250 -6.768750 -17.598700
 292 1 0.451250 -4.963750 -15.793700
 293 1 2.256250 -6.768750 -15.793700
 294 1 2.256250 -4.963750 -17.598700
 295 1 0.451250 -6.768750 -13.988800
 296 1 0.451250 -4.963750 -12.183800
 297 1 2.256250 -6.768750 -12.183800
 298 1 2.256250 -4.963750 -13.988800
 299 1 0.451250 -6.768750 -10.378700
 300 1 0.451250 -4.963750 -8.573750
 301 1 2.256250 -6.768750 -8.573750
 302 1 2.256250 -4.963750 -10.378700
 303 1 0.451250 -6.768750 -6.768750
 304 1 0.451250 -4.963750 -4.963750
 305 1 2.256250 -6.768750 -4.963750
 306 1 2.256250 -4.963750 -6.768750
 307 1 0.451250 -6.768750 -3.158750
 308 1 0.451250 -4.963750 -1.353750
 309 1 2.256250 -6.768750 -1.353750
 310 1 2.256250 -4.963750 -3.158750
 311 1 0.451250 -6.768750 0.451250
 312 1 0.451250 -4.963750 2.256250
 313 1 2.256250 -6.768750 2.256250
 314 1 2.256250 -4.963750 0.451250
 315 1 0.451250 -6.768750 4.061250
 316 1 0.451250 -4.963750 5.866250
 317 1 2.256250 -6.768750 5.866250
 318 1 2.256250 -4.963750 4.061250
 319 1 0.451250 -6.768750 7.671250
 320 1 0.451250 -4.963750 9.476250
 321 1 2.256250 -6.768750 9.476250
 322 1 2.256250 -4.963750 7.671250
 323 1 0.451250 -6.768750 11.281200
 324 1 0.451250 -4.963750 13.086300
 325 1 2.256250 -6.768750 13.086300
 326 1 2.256250 -4.963750 11.281200
 327 1 0.451250 -6.768750 14.891200
 328 1 0.451250 -4.963750 16.696300
 329 1 2.256250 -6.768750 16.696300
 330 1 2.256250 -4.963750 14.891200
 331 1 0.451250 -3.158750 -17.598700
 332 1 0.451250 -1.353750 -15.793700
 333 1 2.256250 -3.158750 -15.793700
 334 1 2.256250 -1.353750 -17.598700
 335 1 0.451250 -3.158750 -13.988800
 336 1 0.451250 -1.353750 -12.183800
 337 1 2.256250 -3.158750 -12.183800
 338 1 2.256250 -1.353750 -13.988800
 339 1 0.451250 -3.158750 -10.378700
 340 1 0.451250 -1.353750 -8.573750
 341 1 2.256250 -3.158750 -8.573750
 342 1 2.256250 -1.353750 -10.378700
 343 1 0.451250 -3.158750 -6.768750
 344 1 0.451250 -1.353750 -4.963750
 345 1 2.256250 -3.158750 -4.963750
 346 1 2.256250 -1.353750 -6.768750
 347 1 0.451250 -3.158750 -3.158750
 348 1 0.451250 -1.353750 -1.353750
 349 1 2.256250 -3.158750 -1.353750
 350 1 2.256250 -1.353750 -3.158750
 351 1 0.451250 -3.158750 0.451250
 352 1 0.451250 -1.353750 2.256250
 353 1 2.256250 -3.158750 2.256250
 354 1 2.256250 -1.353750 0.451250
 355 1 0.451250 -3.158750 4.061250
 356 1 0.451250 -1.353750 5.866250
 357 1 2.256250 -3.158750 5.866250
 358 1 2.256250 -1.353750 4.061250
 359 1 0.451250 -3.158750 7.671250
 360 1 0.451250 -1.353750 9.476250
 361 1 2.256250 -3.158750 9.476250
 362 1 2.256250 -1.353750 7.671250
 363 1 0.451250 -3.158750 11.281200
 364 1 0.451250 -1.353750 13.086300
 365 1 2.256250 -3.158750 13.086300
 366 1 2.256250 -1.353750 11.281200
 367 1 0.451250 -3.158750 14.891200
 368 1 0.451250 -1.353750 16.696300
 369 1 2.256250 -3.158750 16.696300
 370 1 2.256250 -1.353750 14.891200
 371 1 0.451250 0.451250 -17.598700
 372 1 0.451250 2.256250 -15.793700
 373 1 2.256250 0.451250 -15.793700
 374 1 2.256250 2.256250 -17.598700
 375 1 0.451250 0.451250 -13.988800
 376 1 0.451250 2.256250 -12.183800
 377 1 2.256250 0.451250 -12.183800
 378 1 2.256250 2.256250 -13.988800
 379 1 0.451250 0.451250 -10.378700
 380 1 0.451250 2.256250 -8.573750
 381 1 2.256250 0.451250 -8.573750
 382 1 2.256250 2.256250 -10.378700
 383 1 0.451250 0.451250 -6.768750
 384 1 0.451250 2.256250 -4.963750
 385 1 2.256250 0.451250 -4.963750
 386 1 2.256250 2.256250 -6.768750
 387 1 0.451250 0.451250 -3.158750
 388 1 0.451250 2.256250 -1.353750
 389 1 2.256250 0.451250 -1.353750
 390 1 2.256250 2.256250 -3.158750
 391 1 0.451250 0.451250 0.451250
 392 1 0.451250 2.256250 2.256250
 393 1 2.256250 0.451250 2.256250
 394 1 2.256250 2.256250 0.451250
 395 1 0.451250 0.451250 4.061250
 396 1 0.451250 2.256250 5.866250
 397 1 2.256250 0.451250 5.866250
 398 1 2.256250 2.256250 4.061250
 399 1 0.451250 0.451250 7.671250
 400 1 0.451250 2.256250 9.476250
 401 1 2.256250 0.451250 9.476250
 402 1 2.256250 2.256250 7.671250
 403 1 0.451250 0.451250 11.281200
 404 1 0.451250 2.256250 13.086300
 405 1 2.256250 0.451250 13.086300
 406 1 2.256250 2.256250 11.281200
 407 1 0.451250 0.451250 14.891200
 408 1 0.451250 2.256250 16.696300
 409 1 2.256250 0.451250 16.696300
 410 1 2.256250 2.256250 14.891200
 411 1 0.451250 4.061250 -17.598700
 412 1 0.451250 5.866250 -15.793700
 413 1 2.256250 4.061250 -15.793700
 414 1 2.256250 5.866250 -17.598700
 415 1 0.451250 4.061250 -13.988800
 416 1 0.451250 5.866250 -12.183800
 417 1 2.256250 4.061250 -12.183800
 418 1 2.256250 5.866250 -13.988800
 419 1 0.451250 4.061250 -10.378700
 420 1 0.451250 5.866250 -8.573750
 421 1 2.256250 4.061250 -8.573750
 422 1 2.256250 5.866250 -10.378700
 423 1 0.451250 4.061250 -6.768750
 424 1 0.451250 5.866250 -4.963750
 425 1 2.256250 4.061250 -4.963750
 426 1 2.256250 5.866250 -6.768750
 427 1 0.451250 4.061250 -3.158750
 428 1 0.451250 5.866250 -1.353750
 429 1 2.256250 4.061250 -1.353750
 430 1 2.256250 5.866250 -3.158750
 431 1 0.451250 4.061250 0.451250
 432 1 0.451250 5.866250 2.256250
 433 1 2.256250 4.061250 2.256250
 434 1 2.256250 5.866250 0.451250
 435 1 0.451250 4.061250 4.061250
 436 1 0.451250 5.866250 5.866250
 437 1 2.256250 4.061250 5.866250
 438 1 2.256250 5.866250 4.061250
 439 1 0.451250 4.061250 7.671250
 440 1 0.451250 5.866250 9.476250
 441 1 2.256250 4.061250 9.476250
 442 1 2.256250 5.866250 7.671250
 443 1 0.451250 4.061250 11.281200
 444 1 0.451250 5.866250 13.086300
 445 1 2.256250 4.061250 13.086300
 446 1 2.256250 5.866250 11.281200
 447 1 0.451250 4.061250 14.891200
 448 1 0.451250 5.866250 16.696300
 449 1 2.256250 4.061250 16.696300
 450 1 2.256250 5.866250 14.891200
 451 1 0.451250 7.671250 -17.598700
 452 1 2.256250 7.671250 -15.793700
 453 1 0.451250 7.671250 -13.988800
 454 1 2.256250 7.671250 -12.183800
 455 1 0.451250 7.671250 -10.378700
 456 1 2.256250 7.671250 -8.573750
 457 1 0.451250 7.671250 -6.768750
 458 1 2.256250 7.671250 -4.963750
 459 1 0.451250 7.671250 -3.158750
 460 1 2.256250 7.671250 -1.353750
 461 1 0.451250 7.671250 0.451250
 462 1 2.256250 7.671250 2.256250
 463 1 0.451250 7.671250 4.061250
 464 1 2.256250 7.671250 5.866250
 465 1 0.451250 7.671250 7.671250
 466 1 2.256250 7.671250 9.476250
 467 1 0.451250 7.671250 11.281200
 468 1 2.256250 7.671250 13.086300
 469 1 0.451250 7.671250 14.891200
 470 1 2.256250 7.671250 16.696300
 471 1 4.061250 -6.768750 -17.598700
 472 1 4.061250 -4.963750 -15.793700
 473 1 5.866250 -4.963750 -17.598700
 474 1 4.061250 -6.768750 -13.988800
 475 1 4.061250 -4.963750 -12.183800
 476 1 5.866250 -4.963750 -13.988800
 477 1 4.061250 -6.768750 -10.378700
 478 1 4.061250 -4.963750 -8.573750
 479 1 5.866250 -4.963750 -10.378700
 480 1 4.061250 -6.768750 -6.768750
 481 1 4.061250 -4.963750 -4.963750
 482 1 5.866250 -4.963750 -6.768750
 483 1 4.061250 -6.768750 -3.158750
 484 1 4.061250 -4.963750 -1.353750
 485 1 5.866250 -4.963750 -3.158750
 486 1 4.061250 -6.768750 0.451250
 487 1 4.061250 -4.963750 2.256250
 488 1 5.866250 -4.963750 0.451250
 489 1 4.061250 -6.768750 4.061250
 490 1 4.061250 -4.963750 5.866250
 491 1 5.866250 -4.963750 4.061250
 492 1 4.061250 -6.768750 7.671250
 493 1 4.061250 -4.963750 9.476250
 494 1 5.866250 -4.963750 7.671250
 495 1 4.061250 -6.768750 11.281200
 496 1 4.061250 -4.963750 13.086300
 497 1 5.866250 -4.963750 11.281200
 498 1 4.061250 -6.768750 14.891200
 499 1 4.061250 -4.963750 16.696300
 500 1 5.866250 -4.963750 14.891200
 501 1 4.061250 -3.158750 -17.598700
 502 1 4.061250 -1.353750 -15.793700
 503 1 5.866250 -3.158750 -15.793700
 504 1 5.866250 -1.353750 -17.598700
 505 1 4.061250 -3.158750 -13.988800
 506 1 4.061250 -1.353750 -12.183800
 507 1 5.866250 -3.158750 -12.183800
 508 1 5.866250 -1.353750 -13.988800
 509 1 4.061250 -3.158750 -10.378700
 510 1 4.061250 -1.353750 -8.573750
 511 1 5.866250 -3.158750 -8.573750
 512 1 5.866250 -1.353750 -10.378700
 513 1 4.061250 -3.158750 -6.768750
 514 1 4.061250 -1.353750 -4.963750
 515 1 5.866250 -3.158750 -4.963750
 516 1 5.866250 -1.353750 -6.768750
 517 1 4.061250 -3.158750 -3.158750
 518 1 4.061250 -1.353750 -1.353750
 519 1 5.866250 -3.158750 -1.353750
 520 1 5.866250 -1.353750 -3.158750
 521 1 4.061250 -3.158750 0.451250
 522 1 4.061250 -1.353750 2.256250
 523 1 5.866250 -3.158750 2.256250
 524 1 5.866250 -1.353750 0.451250
 525 1 4.061250 -3.158750 4.061250
 526 1 4.061250 -1.353750 5.866250
 527 1 5.866250 -3.158750 5.866250
 528 1 5.866250 -1.353750 4.061250
 529 1 4.061250 -3.158750 7.671250
 530 1 4.061250 -1.353750 9.476250
 531 1 5.866250 -3.158750 9.476250
 532 1 5.866250 -1.353750 7.671250
 533 1 4.061250 -3.158750 11.281200
 534 1 4.061250 -1.353750 13.086300
 535 1 5.866250 -3.158750 13.086300
 536 1 5.866250 -1.353750 11.281200
 537 1 4.061250 -3.158750 14.891200
 538 1 4.061250 -1.353750 16.696300
 539 1 5.866250 -3.158750 16.696300
 540 1 5.866250 -1.353750 14.891200
 541 1 4.061250 0.451250 -17.598700
 542 1 4.061250 2.256250 -15.793700
 543 1 5.866250 0.451250 -15.793700
 544 1 5.866250 2.256250 -17.598700
 545 1 4.061250 0.451250 -13.988800
 546 1 4.061250 2.256250 -12.183800
 547 1 5.866250 0.451250 -12.183800
 548 1 5.866250 2.256250 -13.988800
 549 1 4.061250 0.451250 -10.378700
 550 1 4.061250 2.256250 -8.573750
 551 1 5.866250 0.451250 -8.573750
 552 1 5.866250 2.256250 -10.378700
 553 1 4.061250 0.451250 -6.768750
 554 1 4.061250 2.256250 -4.963750
 555 1 5.866250 0.451250 -4.963750
 556 1 5.866250 2.256250 -6.768750
 557 1 4.061250 0.451250 -3.158750
 558 1 4.061250 2.256250 -1.353750
 559 1 5.866250 0.451250 -1.353750
 560 1 5.866250 2.256250 -3.158750
 561 1 4.061250 0.451250 0.451250
 562 1 4.061250 2.256250 2.256250
 563 1 5.866250 0.451250 2.256250
 564 1 5.866250 2.256250 0.451250
 565 1 4.061250 0.451250 4.061250
 566 1 4.061250 2.256250 5.866250
 567 1 5.866250 0.451250 5.866250
 568 1 5.866250 2.256250 4.061250
 569 1 4.061250 0.451250 7.671250
 570 1 4.061250 2.256250 9.476250
 571 1 5.866250 0.451250 9.476250
 572 1 5.866250 2.256250 7.671250
 573 1 4.061250 0.451250 11.281200
 574 1 4.061250 2.256250 13.086300
 575 1 5.866250 0.451250 13.086300
 576 1 5.866250 2.256250 11.281200
 577 1 4.061250 0.451250 14.891200
 578 1 4.061250 2.256250 16.696300
 579 1 5.866250 0.451250 16.696300
 580 1 5.866250 2.256250 14.891200
 581 1 4.061250 4.061250 -17.598700
 582 1 4.061250 5.866250 -15.793700
 583 1 5.866250 4.061250 -15.793700
 584 1 4.061250 4.061250 -13.988800
 585 1 4.061250 5.866250 -12.183800
 586 1 5.866250 4.061250 -12.183800
 587 1 4.061250 4.061250 -10.378700
 588 1 4.061250 5.866250 -8.573750
 589 1 5.866250 4.061250 -8.573750
 590 1 4.061250 4.061250 -6.768750
 591 1 4.061250 5.866250 -4.963750
 592 1 5.866250 4.061250 -4.963750
 593 1 4.061250 4.061250 -3.158750
 594 1 4.061250 5.866250 -1.353750
 595 1 5.866250 4.061250 -1.353750
 596 1 4.061250 4.061250 0.451250
 597 1 4.061250 5.866250 2.256250
 598 1 5.866250 4.061250 2.256250
 599 1 4.061250 4.061250 4.061250
 600 1 4.061250 5.866250 5.866250
 601 1 5.866250 4.061250 5.866250
 602 1 4.061250 4.061250 7.671250
 603 1 4.061250 5.866250 9.476250
 604 1 5.866250 4.061250 9.476250
 605 1 4.061250 4.061250 11.281200
 606 1 4.061250 5.866250 13.086300
 607 1 5.866250 4.061250 13.086300
 608 1 4.061250 4.061250 14.891200
 609 1 4.061250 5.866250 16.696300
 610 1 5.866250 4.061250 16.696300
 611 1 7.671250 -1.353750 -15.793700
 612 1 7.671250 -1.353750 -12.183800
 613 1 7.671250 -1.353750 -8.573750
 614 1 7.671250 -1.353750 -4.963750
 615 1 7.671250 -1.353750 -1.353750
 616 1 7.671250 -1.353750 2.256250
 617 1 7.671250 -1.353750 5.866250
 618 1 7.671250 -1.353750 9.476250
 619 1 7.671250 -1.353750 13.086300
 620 1 7.671250 -1.353750 16.696300
 621 1 7.671250 0.451250 -17.598700
 622 1 7.671250 2.256250 -15.793700
 623 1 7.671250 0.451250 -13.988800
 624 1 7.671250 2.256250 -12.183800
 625 1 7.671250 0.451250 -10.378700
 626 1 7.671250 2.256250 -8.573750
 627 1 7.671250 0.451250 -6.768750
 628 1 7.671250 2.256250 -4.963750
 629 1 7.671250 0.451250 -3.158750
 630 1 7.671250 2.256250 -1.353750
 631 1 7.671250 0.451250 0.451250
 632 1 7.671250 2.256250 2.256250
 633 1 7.671250 0.451250 4.061250
 634 1 7.671250 2.256250 5.866250
 635 1 7.671250 0.451250 7.671250
 636 1 7.671250 2.256250 9.476250
 637 1 7.671250 0.451250 11.281200
 638 1 7.671250 2.256250 13.086300
 639 1 7.671250 0.451250 14.891200
 640 1 7.671250 2.256250 16.696300
