LAMMPS (1 Mar 2016)
# Compute elastic constant tensor for a crystal
#
# Written by Aidan Thompson (Sandia, athomps@sandia.gov)
#
#  This script uses the following three include files.
#
#   init.mod      (must be modified for different crystal structures)
# 	       	  Define units, deformation parameters and initial
#		  configuration of the atoms and simulation cell.
#
#
#   potential.mod    (must be modified for different pair styles)
# 		     Define pair style and other attributes
#		     not stored in restart file
#
#
#   displace.mod    (displace.mod should not need to be modified)
# 		    Perform positive and negative box displacements
# 		    in direction ${dir} and size ${up}.
# 		    It uses the resultant changes
#		    in stress to compute one
# 		    row of the elastic stiffness tensor
#
#		    Inputs variables:
#		    	   dir = the Voigt deformation component
#		    		    (1,2,3,4,5,6)
#		    Global constants:
#       	    	   up = the deformation magnitude (strain units)
#       		   cfac = conversion from LAMMPS pressure units to
#               	   output units for elastic constants
#
#
#  To run this on a different system, it should only be necessary to
#  modify the files init.mod and potential.mod. In order to calculate
#  the elastic constants correctly, care must be taken to specify
#  the correct units in init.mod (units, cfac and cunits). It is also
#  important to verify that the minimization of energy w.r.t atom
#  positions in the deformed cell is fully converged.
#  One indication of this is that the elastic constants are insensitive
#  to the choice of the variable ${up} in init.mod. Another is to check
#  the final max and two-norm forces reported in the log file. If you know
#  that minimization is not required, you can set maxiter = 0.0 in
#  init.mod.
#

include init.mod
# NOTE: This script can be modified for different atomic structures,
# units, etc. See in.elastic for more info.
#

# Define the finite deformation size. Try several values of this
# variable to verify that results do not depend on it.
variable up equal 1.0e-6

# Define the amount of random jiggle for atoms
# This prevents atoms from staying on saddle points
variable atomjiggle equal 1.0e-5

# Uncomment one of these blocks, depending on what units
# you are using in LAMMPS and for output

# metal units, elastic constants in eV/A^3
#units		metal
#variable cfac equal 6.2414e-7
#variable cunits string eV/A^3

# metal units, elastic constants in GPa
units		metal
variable cfac equal 1.0e-4
variable cunits string GPa

# real units, elastic constants in GPa
#units		real
#variable cfac equal 1.01325e-4
#variable cunits string GPa

# Define minimization parameters
variable etol equal 0.0
variable ftol equal 1.0e-10
variable maxiter equal 100
variable maxeval equal 1000
variable dmax equal 1.0e-2

# generate the box and atom positions using a diamond lattice
variable a equal 5.43

boundary	p p p

lattice         diamond $a
lattice         diamond 5.43
Lattice spacing in x,y,z = 5.43 5.43 5.43
region		box prism 0 2.0 0 3.0 0 4.0 0.0 0.0 0.0
create_box	1 box
Created triclinic box = (0 0 0) to (10.86 16.29 21.72) with tilt (0 0 0)
  1 by 1 by 1 MPI processor grid
create_atoms	1 box
Created 192 atoms

# Need to set mass to something, just to satisfy LAMMPS
mass 1 1.0e-20

include potential.mod
# NOTE: This script can be modified for different pair styles
# See in.elastic for more info.

# Choose potential
pair_style	sw
pair_coeff * * Si.sw Si
Reading potential file Si.sw with DATE: 2007-06-11

# Setup neighbor style
neighbor 1.0 nsq
neigh_modify once no every 1 delay 0 check yes

# Setup minimization style
min_style	     cg
min_modify	     dmax ${dmax} line quadratic
min_modify	     dmax 0.01 line quadratic

# Setup output
thermo		1
thermo_style custom step temp pe press pxx pyy pzz pxy pxz pyz lx ly lz vol
thermo_modify norm no

# Compute initial state
fix 3 all box/relax  aniso 0.0
minimize ${etol} ${ftol} ${maxiter} ${maxeval}
minimize 0 ${ftol} ${maxiter} ${maxeval}
minimize 0 1e-10 ${maxiter} ${maxeval}
minimize 0 1e-10 100 ${maxeval}
minimize 0 1e-10 100 1000
Neighbor list info ...
  1 neighbor list requests
  update every 1 steps, delay 0 steps, check yes
  max neighbors/atom: 2000, page size: 100000
  master list distance cutoff = 4.77118
  ghost atom cutoff = 4.77118
Memory usage per processor = 3.54578 Mbytes
Step Temp PotEng Press Pxx Pyy Pzz Pxy Pxz Pyz Lx Ly Lz Volume 
       0            0   -832.62686    532.56802    532.56802    532.56802    532.56802 2.3160992e-11 -1.0080862e-11 6.7622978e-12        10.86        16.29        21.72    3842.4722 
       1            0   -832.62714    227.98084    227.98084    227.98084    227.98084 2.8697916e-10 -1.0032209e-10 4.7168529e-11    10.861086    16.291629    21.722172     3843.625 
       2            0    -832.6272 -0.016514738 -0.016514738 -0.016514738 -0.016514738 -4.8086137e-11 1.0021046e-10 -4.2157868e-11      10.8619    16.292849    21.723799    3844.4889 
       3            0    -832.6272 -1.8901541e-06 -1.8901704e-06 -1.8901198e-06 -1.8901721e-06 1.651315e-10 2.6639791e-11 -3.1664045e-10      10.8619    16.292849    21.723799    3844.4888 
       4            0    -832.6272 -4.1060377e-11 -2.2709669e-11 -8.800783e-11 -1.2463631e-11 5.9162573e-10 1.2434231e-10 -2.2833446e-10      10.8619    16.292849    21.723799    3844.4888 
Loop time of 0.002213 on 1 procs for 4 steps with 192 atoms

100.0% CPU use with 1 MPI tasks x no OpenMP threads

Minimization stats:
  Stopping criterion = force tolerance
  Energy initial, next-to-last, final = 
        -832.626864929     -832.627199984     -832.627199984
  Force two-norm initial, final = 2.21226 6.81561e-13
  Force max component initial, final = 1.27725 2.11141e-13
  Final line search alpha, max atom move = 1 2.11141e-13
  Iterations, force evaluations = 4 7

MPI task timing breakdown:
Section |  min time  |  avg time  |  max time  |%varavg| %total
---------------------------------------------------------------
Pair    | 0.002064   | 0.002064   | 0.002064   |   0.0 | 93.27
Neigh   | 0          | 0          | 0          |   0.0 |  0.00
Comm    | 1.8835e-05 | 1.8835e-05 | 1.8835e-05 |   0.0 |  0.85
Output  | 2.5034e-05 | 2.5034e-05 | 2.5034e-05 |   0.0 |  1.13
Modify  | 0          | 0          | 0          |   0.0 |  0.00
Other   |            | 0.0001051  |            |       |  4.75

Nlocal:    192 ave 192 max 192 min
Histogram: 1 0 0 0 0 0 0 0 0 0
Nghost:    634 ave 634 max 634 min
Histogram: 1 0 0 0 0 0 0 0 0 0
Neighs:    0 ave 0 max 0 min
Histogram: 1 0 0 0 0 0 0 0 0 0
FullNghs:  5376 ave 5376 max 5376 min
Histogram: 1 0 0 0 0 0 0 0 0 0

Total # of neighbors = 5376
Ave neighs/atom = 28
Neighbor list builds = 0
Dangerous builds = 0

variable tmp equal pxx
variable pxx0 equal ${tmp}
variable pxx0 equal -2.2709669199828e-11
variable tmp equal pyy
variable pyy0 equal ${tmp}
variable pyy0 equal -8.80078301266953e-11
variable tmp equal pzz
variable pzz0 equal ${tmp}
variable pzz0 equal -1.24636314952552e-11
variable tmp equal pyz
variable pyz0 equal ${tmp}
variable pyz0 equal -2.28334457728733e-10
variable tmp equal pxz
variable pxz0 equal ${tmp}
variable pxz0 equal 1.2434230513788e-10
variable tmp equal pxy
variable pxy0 equal ${tmp}
variable pxy0 equal 5.91625731776107e-10

variable tmp equal lx
variable lx0 equal ${tmp}
variable lx0 equal 10.8618995568104
variable tmp equal ly
variable ly0 equal ${tmp}
variable ly0 equal 16.2928493352156
variable tmp equal lz
variable lz0 equal ${tmp}
variable lz0 equal 21.7237991136209

# These formulas define the derivatives w.r.t. strain components
# Constants uses $, variables use v_
variable d1 equal -(v_pxx1-${pxx0})/(v_delta/v_len0)*${cfac}
variable d1 equal -(v_pxx1--2.2709669199828e-11)/(v_delta/v_len0)*${cfac}
variable d1 equal -(v_pxx1--2.2709669199828e-11)/(v_delta/v_len0)*0.0001
variable d2 equal -(v_pyy1-${pyy0})/(v_delta/v_len0)*${cfac}
variable d2 equal -(v_pyy1--8.80078301266953e-11)/(v_delta/v_len0)*${cfac}
variable d2 equal -(v_pyy1--8.80078301266953e-11)/(v_delta/v_len0)*0.0001
variable d3 equal -(v_pzz1-${pzz0})/(v_delta/v_len0)*${cfac}
variable d3 equal -(v_pzz1--1.24636314952552e-11)/(v_delta/v_len0)*${cfac}
variable d3 equal -(v_pzz1--1.24636314952552e-11)/(v_delta/v_len0)*0.0001
variable d4 equal -(v_pyz1-${pyz0})/(v_delta/v_len0)*${cfac}
variable d4 equal -(v_pyz1--2.28334457728733e-10)/(v_delta/v_len0)*${cfac}
variable d4 equal -(v_pyz1--2.28334457728733e-10)/(v_delta/v_len0)*0.0001
variable d5 equal -(v_pxz1-${pxz0})/(v_delta/v_len0)*${cfac}
variable d5 equal -(v_pxz1-1.2434230513788e-10)/(v_delta/v_len0)*${cfac}
variable d5 equal -(v_pxz1-1.2434230513788e-10)/(v_delta/v_len0)*0.0001
variable d6 equal -(v_pxy1-${pxy0})/(v_delta/v_len0)*${cfac}
variable d6 equal -(v_pxy1-5.91625731776107e-10)/(v_delta/v_len0)*${cfac}
variable d6 equal -(v_pxy1-5.91625731776107e-10)/(v_delta/v_len0)*0.0001

displace_atoms all random ${atomjiggle} ${atomjiggle} ${atomjiggle} 87287 units box
displace_atoms all random 1e-05 ${atomjiggle} ${atomjiggle} 87287 units box
displace_atoms all random 1e-05 1e-05 ${atomjiggle} 87287 units box
displace_atoms all random 1e-05 1e-05 1e-05 87287 units box

# Write restart
unfix 3
write_restart restart.equil

# uxx Perturbation

variable dir equal 1
include displace.mod
# NOTE: This script should not need to be
# modified. See in.elastic for more info.
#
# Find which reference length to use

if "${dir} == 1" then    "variable len0 equal ${lx0}"
variable len0 equal ${lx0}
variable len0 equal 10.8618995568104
if "${dir} == 2" then    "variable len0 equal ${ly0}"
if "${dir} == 3" then    "variable len0 equal ${lz0}"
if "${dir} == 4" then    "variable len0 equal ${lz0}"
if "${dir} == 5" then    "variable len0 equal ${lz0}"
if "${dir} == 6" then    "variable len0 equal ${ly0}"

# Reset box and simulation parameters

clear
box tilt large
read_restart restart.equil
  triclinic box = (-0.000949778 -0.00142467 -0.00189956) to (10.8609 16.2914 21.7219) with tilt (0 0 0)
  1 by 1 by 1 MPI processor grid
  192 atoms
include potential.mod
# NOTE: This script can be modified for different pair styles
# See in.elastic for more info.

# Choose potential
pair_style	sw
pair_coeff * * Si.sw Si
Reading potential file Si.sw with DATE: 2007-06-11

# Setup neighbor style
neighbor 1.0 nsq
neigh_modify once no every 1 delay 0 check yes

# Setup minimization style
min_style	     cg
min_modify	     dmax ${dmax} line quadratic
min_modify	     dmax 0.01 line quadratic

# Setup output
thermo		1
thermo_style custom step temp pe press pxx pyy pzz pxy pxz pyz lx ly lz vol
thermo_modify norm no

# Negative deformation

variable delta equal -${up}*${len0}
variable delta equal -1e-06*${len0}
variable delta equal -1e-06*10.8618995568104
variable deltaxy equal -${up}*xy
variable deltaxy equal -1e-06*xy
variable deltaxz equal -${up}*xz
variable deltaxz equal -1e-06*xz
variable deltayz equal -${up}*yz
variable deltayz equal -1e-06*yz
if "${dir} == 1" then    "change_box all x delta 0 ${delta} xy delta ${deltaxy} xz delta ${deltaxz} remap units box"
change_box all x delta 0 ${delta} xy delta ${deltaxy} xz delta ${deltaxz} remap units box
change_box all x delta 0 -1.08618995568104e-05 xy delta ${deltaxy} xz delta ${deltaxz} remap units box
change_box all x delta 0 -1.08618995568104e-05 xy delta -0 xz delta ${deltaxz} remap units box
change_box all x delta 0 -1.08618995568104e-05 xy delta -0 xz delta -0 remap units box
  triclinic box = (-0.000949778 -0.00142467 -0.00189956) to (10.8609 16.2914 21.7219) with tilt (0 0 0)
  triclinic box = (-0.000949778 -0.00142467 -0.00189956) to (10.8609 16.2914 21.7219) with tilt (0 0 0)
  triclinic box = (-0.000949778 -0.00142467 -0.00189956) to (10.8609 16.2914 21.7219) with tilt (0 0 0)
if "${dir} == 2" then    "change_box all y delta 0 ${delta} yz delta ${deltayz} remap units box"
if "${dir} == 3" then    "change_box all z delta 0 ${delta} remap units box"
if "${dir} == 4" then    "change_box all yz delta ${delta} remap units box"
if "${dir} == 5" then    "change_box all xz delta ${delta} remap units box"
if "${dir} == 6" then    "change_box all xy delta ${delta} remap units box"

# Relax atoms positions

minimize ${etol} ${ftol} ${maxiter} ${maxeval}
minimize 0 ${ftol} ${maxiter} ${maxeval}
minimize 0 1e-10 ${maxiter} ${maxeval}
minimize 0 1e-10 100 ${maxeval}
minimize 0 1e-10 100 1000
Neighbor list info ...
  1 neighbor list requests
  update every 1 steps, delay 0 steps, check yes
  max neighbors/atom: 2000, page size: 100000
  master list distance cutoff = 4.77118
  ghost atom cutoff = 4.77118
Memory usage per processor = 2.9281 Mbytes
Step Temp PotEng Press Pxx Pyy Pzz Pxy Pxz Pyz Lx Ly Lz Volume 
       4            0    -832.6272     1.014294    1.5143133   0.76428315   0.76428565    1.6660607 -0.076089012   0.43727144    10.861889    16.292849    21.723799     3844.485 
       5            0    -832.6272     1.014232    1.5142476   0.76422433   0.76422415  -0.39440015  0.018013284  -0.10350874    10.861889    16.292849    21.723799     3844.485 
       6            0    -832.6272    1.0142305     1.514246   0.76422276   0.76422268   0.34143217 -0.015595243  0.089605869    10.861889    16.292849    21.723799     3844.485 
       7            0    -832.6272    1.0142306    1.5142464    0.7642228   0.76422254  -0.23685471  0.010819025 -0.062159933    10.861889    16.292849    21.723799     3844.485 
       8            0    -832.6272    1.0142306    1.5142465   0.76422278   0.76422264    0.1222191 -0.0055828177   0.03207439    10.861889    16.292849    21.723799     3844.485 
       9            0    -832.6272    1.0142306    1.5142465   0.76422273   0.76422268 -0.061069469 0.0027897484 -0.016026349    10.861889    16.292849    21.723799     3844.485 
      10            0    -832.6272    1.0142306    1.5142465   0.76422273   0.76422268  0.031065937 -0.0014192854 0.0081522312    10.861889    16.292849    21.723799     3844.485 
      11            0    -832.6272    1.0142306    1.5142465   0.76422272   0.76422271  -0.02071815 0.00094669273 -0.0054364902    10.861889    16.292849    21.723799     3844.485 
      12            0    -832.6272    1.0142306    1.5142465   0.76422271    0.7642227  0.010753223 -0.00049146461 0.0028214636    10.861889    16.292849    21.723799     3844.485 
      13            0    -832.6272    1.0142306    1.5142465   0.76422271   0.76422271 -0.0058917413 0.00026937757 -0.0015457362    10.861889    16.292849    21.723799     3844.485 
      14            0    -832.6272    1.0142306    1.5142465   0.76422271   0.76422271 0.0032844248 -0.00015026367 0.00086153242    10.861889    16.292849    21.723799     3844.485 
      15            0    -832.6272    1.0142306    1.5142465   0.76422271   0.76422271 -0.0016643288 7.627071e-05 -0.00043637481    10.861889    16.292849    21.723799     3844.485 
      16            0    -832.6272    1.0142306    1.5142465   0.76422271   0.76422271 0.00099240404 -4.5609333e-05 0.00025999454    10.861889    16.292849    21.723799     3844.485 
      17            0    -832.6272    1.0142306    1.5142465   0.76422271   0.76422271 -0.00057079539 2.6378944e-05 -0.00014931611    10.861889    16.292849    21.723799     3844.485 
      18            0    -832.6272    1.0142306    1.5142465   0.76422271   0.76422271 0.00037769283 -1.766163e-05 9.8480629e-05    10.861889    16.292849    21.723799     3844.485 
      19            0    -832.6272    1.0142306    1.5142465   0.76422271   0.76422271 -0.00019782644 9.4045768e-06 -5.1344671e-05    10.861889    16.292849    21.723799     3844.485 
      20            0    -832.6272    1.0142306    1.5142465   0.76422271   0.76422271 0.00010842849 -5.3790879e-06 2.7794018e-05    10.861889    16.292849    21.723799     3844.485 
      21            0    -832.6272    1.0142306    1.5142465   0.76422271   0.76422271 -6.0397221e-05 3.2514095e-06 -1.5087149e-05    10.861889    16.292849    21.723799     3844.485 
      22            0    -832.6272    1.0142306    1.5142465   0.76422271   0.76422271 2.8043419e-05 -1.7983162e-06 6.5579079e-06    10.861889    16.292849    21.723799     3844.485 
      23            0    -832.6272    1.0142306    1.5142465   0.76422271   0.76422271 -1.573137e-05 1.4039614e-06 -3.0668161e-06    10.861889    16.292849    21.723799     3844.485 
      24            0    -832.6272    1.0142306    1.5142465   0.76422271   0.76422271 1.0590144e-05 -1.4577824e-06 1.2704125e-06    10.861889    16.292849    21.723799     3844.485 
      25            0    -832.6272    1.0142306    1.5142465   0.76422271   0.76422271 -5.0459186e-06 1.0784619e-06 -1.0958264e-08    10.861889    16.292849    21.723799     3844.485 
      26            0    -832.6272    1.0142306    1.5142465   0.76422271   0.76422271 5.4281387e-06 -1.7333982e-06 -8.760766e-07    10.861889    16.292849    21.723799     3844.485 
      27            0    -832.6272    1.0142306    1.5142465   0.76422271   0.76422271 -3.4333126e-06 1.4786089e-06 1.1461622e-06    10.861889    16.292849    21.723799     3844.485 
      28            0    -832.6272    1.0142306    1.5142465   0.76422271   0.76422271 2.812054e-06 -1.4564981e-06 -1.319161e-06    10.861889    16.292849    21.723799     3844.485 
      29            0    -832.6272    1.0142306    1.5142465   0.76422271   0.76422271 -2.7844626e-06 1.6714094e-06 1.6615406e-06    10.861889    16.292849    21.723799     3844.485 
      30            0    -832.6272    1.0142306    1.5142465   0.76422271   0.76422271 2.4436942e-06 -1.6074398e-06 -1.6760712e-06    10.861889    16.292849    21.723799     3844.485 
      31            0    -832.6272    1.0142306    1.5142465   0.76422271   0.76422271 -2.6060449e-06 1.7763163e-06 1.8835923e-06    10.861889    16.292849    21.723799     3844.485 
      32            0    -832.6272    1.0142306    1.5142465   0.76422271   0.76422271 2.4140369e-06 -1.6883239e-06 -1.8112905e-06    10.861889    16.292849    21.723799     3844.485 
      33            0    -832.6272    1.0142306    1.5142465   0.76422271   0.76422271 -2.4301582e-06 1.7188679e-06 1.8532218e-06    10.861889    16.292849    21.723799     3844.485 
      34            0    -832.6272    1.0142306    1.5142465   0.76422271   0.76422271 1.6591097e-06 -1.1808514e-06 -1.276589e-06    10.861889    16.292849    21.723799     3844.485 
      35            0    -832.6272    1.0142306    1.5142465   0.76422271   0.76422271 -1.9759818e-06 1.4132619e-06 1.5309921e-06    10.861889    16.292849    21.723799     3844.485 
      36            0    -832.6272    1.0142306    1.5142465   0.76422271   0.76422271 2.2916592e-06 -1.6410347e-06 -1.7785655e-06    10.861889    16.292849    21.723799     3844.485 
      37            0    -832.6272    1.0142306    1.5142465   0.76422271   0.76422271 -2.0560351e-06 1.4731787e-06 1.5969986e-06    10.861889    16.292849    21.723799     3844.485 
      38            0    -832.6272    1.0142306    1.5142465   0.76422271   0.76422271 2.0119478e-06 -1.4420052e-06 -1.5634056e-06    10.861889    16.292849    21.723799     3844.485 
      39            0    -832.6272    1.0142306    1.5142465   0.76422271   0.76422271 -2.4287882e-06 1.7409331e-06 1.8876386e-06    10.861889    16.292849    21.723799     3844.485 
      40            0    -832.6272    1.0142306    1.5142465   0.76422271   0.76422271 1.8353789e-06 -1.3157632e-06 -1.4266948e-06    10.861889    16.292849    21.723799     3844.485 
      41            0    -832.6272    1.0142306    1.5142465   0.76422271   0.76422271 -2.0323765e-06 1.4570654e-06 1.579946e-06    10.861889    16.292849    21.723799     3844.485 
      42            0    -832.6272    1.0142306    1.5142465   0.76422271   0.76422271 2.5102959e-06 -1.7997918e-06 -1.951532e-06    10.861889    16.292849    21.723799     3844.485 
      43            0    -832.6272    1.0142306    1.5142465   0.76422271   0.76422271 -1.4717329e-06 1.0553103e-06 1.144192e-06    10.861889    16.292849    21.723799     3844.485 
      44            0    -832.6272    1.0142306    1.5142465   0.76422271   0.76422271 1.2481391e-06 -8.9508767e-07 -9.7046708e-07    10.861889    16.292849    21.723799     3844.485 
      45            0    -832.6272    1.0142306    1.5142465   0.76422271   0.76422271 -7.816875e-07 5.6055664e-07 6.0780027e-07    10.861889    16.292849    21.723799     3844.485 
      46            0    -832.6272    1.0142306    1.5142465   0.76422271   0.76422271 4.5189719e-07 -3.2401364e-07 -3.5123362e-07    10.861889    16.292849    21.723799     3844.485 
      47            0    -832.6272    1.0142306    1.5142465   0.76422271   0.76422271 -1.6708166e-07 1.1978563e-07 1.2971925e-07    10.861889    16.292849    21.723799     3844.485 
      48            0    -832.6272    1.0142306    1.5142465   0.76422271   0.76422271 9.9333457e-08 -7.1304718e-08 -7.6935165e-08    10.861889    16.292849    21.723799     3844.485 
      49            0    -832.6272    1.0142306    1.5142465   0.76422271   0.76422271 -3.4939868e-08 2.5183348e-08 2.6920107e-08    10.861889    16.292849    21.723799     3844.485 
      50            0    -832.6272    1.0142306    1.5142465   0.76422271   0.76422271 1.8151806e-08 -1.3175662e-08 -1.3757412e-08    10.861889    16.292849    21.723799     3844.485 
      51            0    -832.6272    1.0142306    1.5142465   0.76422271   0.76422271 -1.3009716e-08 9.5608241e-09 9.5287579e-09    10.861889    16.292849    21.723799     3844.485 
      52            0    -832.6272    1.0142306    1.5142465   0.76422271   0.76422271 3.5432092e-09 -2.8440894e-09 -2.4663064e-09    10.861889    16.292849    21.723799     3844.485 
      53            0    -832.6272    1.0142306    1.5142465   0.76422271   0.76422271 -1.7892009e-09 1.8632338e-09 1.0839478e-09    10.861889    16.292849    21.723799     3844.485 
Loop time of 0.0286438 on 1 procs for 49 steps with 192 atoms

100.0% CPU use with 1 MPI tasks x no OpenMP threads

Minimization stats:
  Stopping criterion = force tolerance
  Energy initial, next-to-last, final = 
        -832.627199814     -832.627199982     -832.627199982
  Force two-norm initial, final = 0.00299909 7.71119e-11
  Force max component initial, final = 0.000327557 9.51247e-12
  Final line search alpha, max atom move = 1 9.51247e-12
  Iterations, force evaluations = 49 98

MPI task timing breakdown:
Section |  min time  |  avg time  |  max time  |%varavg| %total
---------------------------------------------------------------
Pair    | 0.027584   | 0.027584   | 0.027584   |   0.0 | 96.30
Neigh   | 0          | 0          | 0          |   0.0 |  0.00
Comm    | 0.00023031 | 0.00023031 | 0.00023031 |   0.0 |  0.80
Output  | 0.00046611 | 0.00046611 | 0.00046611 |   0.0 |  1.63
Modify  | 0          | 0          | 0          |   0.0 |  0.00
Other   |            | 0.0003633  |            |       |  1.27

Nlocal:    192 ave 192 max 192 min
Histogram: 1 0 0 0 0 0 0 0 0 0
Nghost:    634 ave 634 max 634 min
Histogram: 1 0 0 0 0 0 0 0 0 0
Neighs:    0 ave 0 max 0 min
Histogram: 1 0 0 0 0 0 0 0 0 0
FullNghs:  5376 ave 5376 max 5376 min
Histogram: 1 0 0 0 0 0 0 0 0 0

Total # of neighbors = 5376
Ave neighs/atom = 28
Neighbor list builds = 0
Dangerous builds = 0

# Obtain new stress tensor

variable tmp equal pxx
variable pxx1 equal ${tmp}
variable pxx1 equal 1.5142464723188
variable tmp equal pyy
variable pyy1 equal ${tmp}
variable pyy1 equal 0.764222708837596
variable tmp equal pzz
variable pzz1 equal ${tmp}
variable pzz1 equal 0.764222708954043
variable tmp equal pxy
variable pxy1 equal ${tmp}
variable pxy1 equal -1.78920085656491e-09
variable tmp equal pxz
variable pxz1 equal ${tmp}
variable pxz1 equal 1.86323375146306e-09
variable tmp equal pyz
variable pyz1 equal ${tmp}
variable pyz1 equal 1.08394783972635e-09

# Compute elastic constant from pressure tensor

variable C1neg equal ${d1}
variable C1neg equal 151.424647234151
variable C2neg equal ${d2}
variable C2neg equal 76.4222708925604
variable C3neg equal ${d3}
variable C3neg equal 76.4222708966507
variable C4neg equal ${d4}
variable C4neg equal 1.31228229745508e-07
variable C5neg equal ${d5}
variable C5neg equal 1.73889144632518e-07
variable C6neg equal ${d6}
variable C6neg equal -2.38082658834102e-07

# Reset box and simulation parameters

clear
box tilt large
read_restart restart.equil
  triclinic box = (-0.000949778 -0.00142467 -0.00189956) to (10.8609 16.2914 21.7219) with tilt (0 0 0)
  1 by 1 by 1 MPI processor grid
  192 atoms
include potential.mod
# NOTE: This script can be modified for different pair styles
# See in.elastic for more info.

# Choose potential
pair_style	sw
pair_coeff * * Si.sw Si
Reading potential file Si.sw with DATE: 2007-06-11

# Setup neighbor style
neighbor 1.0 nsq
neigh_modify once no every 1 delay 0 check yes

# Setup minimization style
min_style	     cg
min_modify	     dmax ${dmax} line quadratic
min_modify	     dmax 0.01 line quadratic

# Setup output
thermo		1
thermo_style custom step temp pe press pxx pyy pzz pxy pxz pyz lx ly lz vol
thermo_modify norm no

# Positive deformation

variable delta equal ${up}*${len0}
variable delta equal 1e-06*${len0}
variable delta equal 1e-06*10.8618995568104
variable deltaxy equal ${up}*xy
variable deltaxy equal 1e-06*xy
variable deltaxz equal ${up}*xz
variable deltaxz equal 1e-06*xz
variable deltayz equal ${up}*yz
variable deltayz equal 1e-06*yz
if "${dir} == 1" then    "change_box all x delta 0 ${delta} xy delta ${deltaxy} xz delta ${deltaxz} remap units box"
change_box all x delta 0 ${delta} xy delta ${deltaxy} xz delta ${deltaxz} remap units box
change_box all x delta 0 1.08618995568104e-05 xy delta ${deltaxy} xz delta ${deltaxz} remap units box
change_box all x delta 0 1.08618995568104e-05 xy delta 0 xz delta ${deltaxz} remap units box
change_box all x delta 0 1.08618995568104e-05 xy delta 0 xz delta 0 remap units box
  triclinic box = (-0.000949778 -0.00142467 -0.00189956) to (10.861 16.2914 21.7219) with tilt (0 0 0)
  triclinic box = (-0.000949778 -0.00142467 -0.00189956) to (10.861 16.2914 21.7219) with tilt (0 0 0)
  triclinic box = (-0.000949778 -0.00142467 -0.00189956) to (10.861 16.2914 21.7219) with tilt (0 0 0)
if "${dir} == 2" then    "change_box all y delta 0 ${delta} yz delta ${deltayz} remap units box"
if "${dir} == 3" then    "change_box all z delta 0 ${delta} remap units box"
if "${dir} == 4" then    "change_box all yz delta ${delta} remap units box"
if "${dir} == 5" then    "change_box all xz delta ${delta} remap units box"
if "${dir} == 6" then    "change_box all xy delta ${delta} remap units box"

# Relax atoms positions

minimize ${etol} ${ftol} ${maxiter} ${maxeval}
minimize 0 ${ftol} ${maxiter} ${maxeval}
minimize 0 1e-10 ${maxiter} ${maxeval}
minimize 0 1e-10 100 ${maxeval}
minimize 0 1e-10 100 1000
Neighbor list info ...
  1 neighbor list requests
  update every 1 steps, delay 0 steps, check yes
  max neighbors/atom: 2000, page size: 100000
  master list distance cutoff = 4.77118
  ghost atom cutoff = 4.77118
Memory usage per processor = 2.9281 Mbytes
Step Temp PotEng Press Pxx Pyy Pzz Pxy Pxz Pyz Lx Ly Lz Volume 
       4            0    -832.6272   -1.0141636   -1.5141762  -0.76415854  -0.76415604    1.6660522 -0.076088622   0.43726931     10.86191    16.292849    21.723799    3844.4927 
       5            0    -832.6272   -1.0142256    -1.514242  -0.76421736  -0.76421753  -0.39439915  0.018013238  -0.10350809     10.86191    16.292849    21.723799    3844.4927 
       6            0    -832.6272   -1.0142272   -1.5142436  -0.76421893    -0.764219   0.34143146 -0.015595211  0.089605067     10.86191    16.292849    21.723799    3844.4927 
       7            0    -832.6272   -1.0142271   -1.5142432  -0.76421888  -0.76421915  -0.23685391  0.010818989 -0.062159017     10.86191    16.292849    21.723799    3844.4927 
       8            0    -832.6272    -1.014227   -1.5142431  -0.76421891  -0.76421904   0.12221868 -0.0055827986  0.032073589     10.86191    16.292849    21.723799    3844.4927 
       9            0    -832.6272    -1.014227   -1.5142431  -0.76421895  -0.76421901 -0.061069212  0.002789737 -0.016025653     10.86191    16.292849    21.723799    3844.4927 
      10            0    -832.6272    -1.014227   -1.5142431  -0.76421896    -0.764219  0.031065871 -0.0014192828 0.0081516162     10.86191    16.292849    21.723799    3844.4927 
      11            0    -832.6272    -1.014227   -1.5142431  -0.76421897  -0.76421898  -0.02071816 0.00094669357 -0.005435812     10.86191    16.292849    21.723799    3844.4927 
      12            0    -832.6272    -1.014227   -1.5142431  -0.76421898  -0.76421898  0.010753272 -0.00049146712 0.0028209169     10.86191    16.292849    21.723799    3844.4927 
      13            0    -832.6272    -1.014227   -1.5142431  -0.76421898  -0.76421898 -0.0058918001 0.00026938046 -0.0015452717     10.86191    16.292849    21.723799    3844.4927 
      14            0    -832.6272    -1.014227   -1.5142431  -0.76421898  -0.76421898  0.003284496 -0.00015026705 0.00086110704     10.86191    16.292849    21.723799    3844.4927 
      15            0    -832.6272    -1.014227   -1.5142431  -0.76421898  -0.76421898 -0.0016644184 7.6274963e-05 -0.0004359503     10.86191    16.292849    21.723799    3844.4927 
      16            0    -832.6272    -1.014227   -1.5142431  -0.76421898  -0.76421898 0.00099251533 -4.5614599e-05 0.00025951797     10.86191    16.292849    21.723799    3844.4927 
      17            0    -832.6272    -1.014227   -1.5142431  -0.76421898  -0.76421898 -0.00057092313 2.6384939e-05 -0.00014879739     10.86191    16.292849    21.723799    3844.4927 
      18            0    -832.6272    -1.014227   -1.5142431  -0.76421898  -0.76421898 0.00037786882 -1.7669931e-05 9.778716e-05     10.86191    16.292849    21.723799    3844.4927 
      19            0    -832.6272    -1.014227   -1.5142431  -0.76421898  -0.76421898 -0.0001979856 9.4121492e-06 -5.072158e-05     10.86191    16.292849    21.723799    3844.4927 
      20            0    -832.6272    -1.014227   -1.5142431  -0.76421898  -0.76421898 0.00010861517 -5.388065e-06 2.7072499e-05     10.86191    16.292849    21.723799    3844.4927 
      21            0    -832.6272    -1.014227   -1.5142431  -0.76421898  -0.76421898 -6.0613938e-05 3.2619256e-06 -1.4253581e-05     10.86191    16.292849    21.723799    3844.4927 
      22            0    -832.6272    -1.014227   -1.5142431  -0.76421898  -0.76421898 2.8271833e-05 -1.8094144e-06  5.68214e-06     10.86191    16.292849    21.723799    3844.4927 
      23            0    -832.6272    -1.014227   -1.5142431  -0.76421898  -0.76421898 -1.6034443e-05 1.4187054e-06 -1.9068359e-06     10.86191    16.292849    21.723799    3844.4927 
      24            0    -832.6272    -1.014227   -1.5142431  -0.76421898  -0.76421898 1.1021169e-05 -1.4788364e-06 -3.7821498e-07     10.86191    16.292849    21.723799    3844.4927 
      25            0    -832.6272    -1.014227   -1.5142431  -0.76421898  -0.76421898 -5.4213015e-06 1.0968548e-06 1.4241835e-06     10.86191    16.292849    21.723799    3844.4927 
      26            0    -832.6272    -1.014227   -1.5142431  -0.76421898  -0.76421898 6.0860798e-06 -1.7657502e-06 -3.3903249e-06     10.86191    16.292849    21.723799    3844.4927 
      27            0    -832.6272    -1.014227   -1.5142431  -0.76421898  -0.76421898 -4.0190113e-06 1.5075658e-06 3.383433e-06     10.86191    16.292849    21.723799    3844.4927 
      28            0    -832.6272    -1.014227   -1.5142431  -0.76421898  -0.76421898 3.4006844e-06 -1.485794e-06 -3.5672288e-06     10.86191    16.292849    21.723799    3844.4927 
      29            0    -832.6272    -1.014227   -1.5142431  -0.76421898  -0.76421898 -3.4690647e-06 1.7056715e-06 4.2756155e-06     10.86191    16.292849    21.723799    3844.4927 
      30            0    -832.6272    -1.014227   -1.5142431  -0.76421898  -0.76421898 3.1068444e-06 -1.6406099e-06 -4.2080508e-06     10.86191    16.292849    21.723799    3844.4927 
      31            0    -832.6272    -1.014227   -1.5142431  -0.76421898  -0.76421898 -3.3406075e-06 1.8128672e-06 4.6885267e-06     10.86191    16.292849    21.723799    3844.4927 
      32            0    -832.6272    -1.014227   -1.5142431  -0.76421898  -0.76421898 3.1131368e-06 -1.7229426e-06 -4.4818137e-06     10.86191    16.292849    21.723799    3844.4927 
      33            0    -832.6272    -1.014227   -1.5142431  -0.76421898  -0.76421898 -3.1417433e-06 1.7537447e-06 4.5733124e-06     10.86191    16.292849    21.723799    3844.4927 
      34            0    -832.6272    -1.014227   -1.5142431  -0.76421898  -0.76421898 2.1474494e-06 -1.2044014e-06 -3.1449712e-06     10.86191    16.292849    21.723799    3844.4927 
      35            0    -832.6272    -1.014227   -1.5142431  -0.76421898  -0.76421898 -2.5596248e-06 1.4408332e-06 3.7661662e-06     10.86191    16.292849    21.723799    3844.4927 
      36            0    -832.6272    -1.014227   -1.5142431  -0.76421898  -0.76421898 2.9638451e-06 -1.6698203e-06 -4.3658048e-06     10.86191    16.292849    21.723799    3844.4927 
      37            0    -832.6272    -1.014227   -1.5142431  -0.76421898  -0.76421898 -2.649199e-06 1.4931607e-06 3.9043489e-06     10.86191    16.292849    21.723799    3844.4927 
      38            0    -832.6272    -1.014227   -1.5142431  -0.76421898  -0.76421898 2.5716038e-06 -1.449758e-06 -3.7909184e-06     10.86191    16.292849    21.723799    3844.4927 
      39            0    -832.6272    -1.014227   -1.5142431  -0.76421898  -0.76421898 -3.0264971e-06 1.7064354e-06 4.4619791e-06     10.86191    16.292849    21.723799    3844.4927 
      40            0    -832.6272    -1.014227   -1.5142431  -0.76421898  -0.76421898 2.1821378e-06 -1.2305323e-06 -3.2174681e-06     10.86191    16.292849    21.723799    3844.4927 
      41            0    -832.6272    -1.014227   -1.5142431  -0.76421898  -0.76421898 -2.176317e-06 1.227306e-06 3.2089828e-06     10.86191    16.292849    21.723799    3844.4927 
      42            0    -832.6272    -1.014227   -1.5142431  -0.76421898  -0.76421898 2.2629278e-06 -1.2761285e-06 -3.3366763e-06     10.86191    16.292849    21.723799    3844.4927 
      43            0    -832.6272    -1.014227   -1.5142431  -0.76421898  -0.76421898 -1.0782885e-06 6.0803457e-07 1.5899899e-06     10.86191    16.292849    21.723799    3844.4927 
      44            0    -832.6272    -1.014227   -1.5142431  -0.76421898  -0.76421898 7.471252e-07 -4.2120532e-07 -1.1018279e-06     10.86191    16.292849    21.723799    3844.4927 
      45            0    -832.6272    -1.014227   -1.5142431  -0.76421898  -0.76421898 -4.1335952e-07 2.3288736e-07 6.097916e-07     10.86191    16.292849    21.723799    3844.4927 
      46            0    -832.6272    -1.014227   -1.5142431  -0.76421898  -0.76421898 2.2269473e-07 -1.2538292e-07 -3.2869081e-07     10.86191    16.292849    21.723799    3844.4927 
      47            0    -832.6272    -1.014227   -1.5142431  -0.76421898  -0.76421898 -7.9354373e-08 4.4572629e-08 1.1728885e-07     10.86191    16.292849    21.723799    3844.4927 
      48            0    -832.6272    -1.014227   -1.5142431  -0.76421898  -0.76421898 4.6679616e-08 -2.5970703e-08 -6.9182782e-08     10.86191    16.292849    21.723799    3844.4927 
      49            0    -832.6272    -1.014227   -1.5142431  -0.76421898  -0.76421898 -1.6328695e-08 8.9404833e-09 2.4330161e-08     10.86191    16.292849    21.723799    3844.4927 
      50            0    -832.6272    -1.014227   -1.5142431  -0.76421898  -0.76421898 8.3866356e-09 -4.4762077e-09 -1.2755673e-08     10.86191    16.292849    21.723799    3844.4927 
      51            0    -832.6272    -1.014227   -1.5142431  -0.76421898  -0.76421898 -5.8118606e-09 2.9258433e-09 9.3076871e-09     10.86191    16.292849    21.723799    3844.4927 
      52            0    -832.6272    -1.014227   -1.5142431  -0.76421898  -0.76421898 1.5256405e-09 -6.9760938e-10 -2.7550065e-09     10.86191    16.292849    21.723799    3844.4927 
      53            0    -832.6272    -1.014227   -1.5142431  -0.76421898  -0.76421898 -7.8622863e-10 1.9956518e-10 1.8005377e-09     10.86191    16.292849    21.723799    3844.4927 
Loop time of 0.0286021 on 1 procs for 49 steps with 192 atoms

100.0% CPU use with 1 MPI tasks x no OpenMP threads

Minimization stats:
  Stopping criterion = force tolerance
  Energy initial, next-to-last, final = 
        -832.627199814     -832.627199982     -832.627199982
  Force two-norm initial, final = 0.00299909 7.7053e-11
  Force max component initial, final = 0.000327556 9.5314e-12
  Final line search alpha, max atom move = 1 9.5314e-12
  Iterations, force evaluations = 49 98

MPI task timing breakdown:
Section |  min time  |  avg time  |  max time  |%varavg| %total
---------------------------------------------------------------
Pair    | 0.027544   | 0.027544   | 0.027544   |   0.0 | 96.30
Neigh   | 0          | 0          | 0          |   0.0 |  0.00
Comm    | 0.00026822 | 0.00026822 | 0.00026822 |   0.0 |  0.94
Output  | 0.00044036 | 0.00044036 | 0.00044036 |   0.0 |  1.54
Modify  | 0          | 0          | 0          |   0.0 |  0.00
Other   |            | 0.00035    |            |       |  1.22

Nlocal:    192 ave 192 max 192 min
Histogram: 1 0 0 0 0 0 0 0 0 0
Nghost:    634 ave 634 max 634 min
Histogram: 1 0 0 0 0 0 0 0 0 0
Neighs:    0 ave 0 max 0 min
Histogram: 1 0 0 0 0 0 0 0 0 0
FullNghs:  5376 ave 5376 max 5376 min
Histogram: 1 0 0 0 0 0 0 0 0 0

Total # of neighbors = 5376
Ave neighs/atom = 28
Neighbor list builds = 0
Dangerous builds = 0

# Obtain new stress tensor

variable tmp equal pe
variable e1 equal ${tmp}
variable e1 equal -832.62719998231
variable tmp equal press
variable p1 equal ${tmp}
variable p1 equal -1.01422702224518
variable tmp equal pxx
variable pxx1 equal ${tmp}
variable pxx1 equal -1.51424311286436
variable tmp equal pyy
variable pyy1 equal ${tmp}
variable pyy1 equal -0.764218976997557
variable tmp equal pzz
variable pzz1 equal ${tmp}
variable pzz1 equal -0.764218976873629
variable tmp equal pxy
variable pxy1 equal ${tmp}
variable pxy1 equal -7.86228633218771e-10
variable tmp equal pxz
variable pxz1 equal ${tmp}
variable pxz1 equal 1.99565178017437e-10
variable tmp equal pyz
variable pyz1 equal ${tmp}
variable pyz1 equal 1.80053773325992e-09

# Compute elastic constant from pressure tensor

variable C1pos equal ${d1}
variable C1pos equal 151.424311284165
variable C2pos equal ${d2}
variable C2pos equal 76.4218976909549
variable C3pos equal ${d3}
variable C3pos equal 76.4218976861166
variable C4pos equal ${d4}
variable C4pos equal -2.02887219098865e-07
variable C5pos equal ${d5}
variable C5pos equal -7.5222872879557e-09
variable C6pos equal ${d6}
variable C6pos equal 1.37785436499488e-07

# Combine positive and negative

variable C1${dir} equal 0.5*(${C1neg}+${C1pos})
variable C11 equal 0.5*(${C1neg}+${C1pos})
variable C11 equal 0.5*(151.424647234151+${C1pos})
variable C11 equal 0.5*(151.424647234151+151.424311284165)
variable C2${dir} equal 0.5*(${C2neg}+${C2pos})
variable C21 equal 0.5*(${C2neg}+${C2pos})
variable C21 equal 0.5*(76.4222708925604+${C2pos})
variable C21 equal 0.5*(76.4222708925604+76.4218976909549)
variable C3${dir} equal 0.5*(${C3neg}+${C3pos})
variable C31 equal 0.5*(${C3neg}+${C3pos})
variable C31 equal 0.5*(76.4222708966507+${C3pos})
variable C31 equal 0.5*(76.4222708966507+76.4218976861166)
variable C4${dir} equal 0.5*(${C4neg}+${C4pos})
variable C41 equal 0.5*(${C4neg}+${C4pos})
variable C41 equal 0.5*(1.31228229745508e-07+${C4pos})
variable C41 equal 0.5*(1.31228229745508e-07+-2.02887219098865e-07)
variable C5${dir} equal 0.5*(${C5neg}+${C5pos})
variable C51 equal 0.5*(${C5neg}+${C5pos})
variable C51 equal 0.5*(1.73889144632518e-07+${C5pos})
variable C51 equal 0.5*(1.73889144632518e-07+-7.5222872879557e-09)
variable C6${dir} equal 0.5*(${C6neg}+${C6pos})
variable C61 equal 0.5*(${C6neg}+${C6pos})
variable C61 equal 0.5*(-2.38082658834102e-07+${C6pos})
variable C61 equal 0.5*(-2.38082658834102e-07+1.37785436499488e-07)

# Delete dir to make sure it is not reused

variable dir delete

# uyy Perturbation

variable dir equal 2
include displace.mod
# NOTE: This script should not need to be
# modified. See in.elastic for more info.
#
# Find which reference length to use

if "${dir} == 1" then    "variable len0 equal ${lx0}"
if "${dir} == 2" then    "variable len0 equal ${ly0}"
variable len0 equal ${ly0}
variable len0 equal 16.2928493352156
if "${dir} == 3" then    "variable len0 equal ${lz0}"
if "${dir} == 4" then    "variable len0 equal ${lz0}"
if "${dir} == 5" then    "variable len0 equal ${lz0}"
if "${dir} == 6" then    "variable len0 equal ${ly0}"

# Reset box and simulation parameters

clear
box tilt large
read_restart restart.equil
  triclinic box = (-0.000949778 -0.00142467 -0.00189956) to (10.8609 16.2914 21.7219) with tilt (0 0 0)
  1 by 1 by 1 MPI processor grid
  192 atoms
include potential.mod
# NOTE: This script can be modified for different pair styles
# See in.elastic for more info.

# Choose potential
pair_style	sw
pair_coeff * * Si.sw Si
Reading potential file Si.sw with DATE: 2007-06-11

# Setup neighbor style
neighbor 1.0 nsq
neigh_modify once no every 1 delay 0 check yes

# Setup minimization style
min_style	     cg
min_modify	     dmax ${dmax} line quadratic
min_modify	     dmax 0.01 line quadratic

# Setup output
thermo		1
thermo_style custom step temp pe press pxx pyy pzz pxy pxz pyz lx ly lz vol
thermo_modify norm no

# Negative deformation

variable delta equal -${up}*${len0}
variable delta equal -1e-06*${len0}
variable delta equal -1e-06*16.2928493352156
variable deltaxy equal -${up}*xy
variable deltaxy equal -1e-06*xy
variable deltaxz equal -${up}*xz
variable deltaxz equal -1e-06*xz
variable deltayz equal -${up}*yz
variable deltayz equal -1e-06*yz
if "${dir} == 1" then    "change_box all x delta 0 ${delta} xy delta ${deltaxy} xz delta ${deltaxz} remap units box"
if "${dir} == 2" then    "change_box all y delta 0 ${delta} yz delta ${deltayz} remap units box"
change_box all y delta 0 ${delta} yz delta ${deltayz} remap units box
change_box all y delta 0 -1.62928493352156e-05 yz delta ${deltayz} remap units box
change_box all y delta 0 -1.62928493352156e-05 yz delta -0 remap units box
  triclinic box = (-0.000949778 -0.00142467 -0.00189956) to (10.8609 16.2914 21.7219) with tilt (0 0 0)
  triclinic box = (-0.000949778 -0.00142467 -0.00189956) to (10.8609 16.2914 21.7219) with tilt (0 0 0)
if "${dir} == 3" then    "change_box all z delta 0 ${delta} remap units box"
if "${dir} == 4" then    "change_box all yz delta ${delta} remap units box"
if "${dir} == 5" then    "change_box all xz delta ${delta} remap units box"
if "${dir} == 6" then    "change_box all xy delta ${delta} remap units box"

# Relax atoms positions

minimize ${etol} ${ftol} ${maxiter} ${maxeval}
minimize 0 ${ftol} ${maxiter} ${maxeval}
minimize 0 1e-10 ${maxiter} ${maxeval}
minimize 0 1e-10 100 ${maxeval}
minimize 0 1e-10 100 1000
Neighbor list info ...
  1 neighbor list requests
  update every 1 steps, delay 0 steps, check yes
  max neighbors/atom: 2000, page size: 100000
  master list distance cutoff = 4.77118
  ghost atom cutoff = 4.77118
Memory usage per processor = 2.9281 Mbytes
Step Temp PotEng Press Pxx Pyy Pzz Pxy Pxz Pyz Lx Ly Lz Volume 
       4            0    -832.6272     1.014294   0.76428958    1.5143069   0.76428565    1.6660607 -0.076089002   0.43727149      10.8619    16.292833    21.723799     3844.485 
       5            0    -832.6272     1.014232   0.76422381    1.5142481   0.76422415  -0.39440017  0.018013318  -0.10350855      10.8619    16.292833    21.723799     3844.485 
       6            0    -832.6272    1.0142305   0.76422225    1.5142465   0.76422268   0.34143209 -0.015595293   0.08960554      10.8619    16.292833    21.723799     3844.485 
       7            0    -832.6272    1.0142306    0.7642226    1.5142466   0.76422254  -0.23685468  0.010819085 -0.062159571      10.8619    16.292833    21.723799     3844.485 
       8            0    -832.6272    1.0142306   0.76422272    1.5142465   0.76422264   0.12221917 -0.0055828812  0.032074063      10.8619    16.292833    21.723799     3844.485 
       9            0    -832.6272    1.0142306   0.76422269    1.5142465   0.76422268 -0.061069488 0.0027898043 -0.016026039      10.8619    16.292833    21.723799     3844.485 
      10            0    -832.6272    1.0142306   0.76422269    1.5142465   0.76422268     0.031066 -0.0014193407 0.0081519489      10.8619    16.292833    21.723799     3844.485 
      11            0    -832.6272    1.0142306    0.7642227    1.5142465   0.76422271 -0.020718247 0.00094675699 -0.0054361753      10.8619    16.292833    21.723799     3844.485 
      12            0    -832.6272    1.0142306    0.7642227    1.5142465    0.7642227   0.01075332 -0.00049151825 0.0028212093      10.8619    16.292833    21.723799     3844.485 
      13            0    -832.6272    1.0142306    0.7642227    1.5142465   0.76422271 -0.0058918156 0.00026942331 -0.0015455159      10.8619    16.292833    21.723799     3844.485 
      14            0    -832.6272    1.0142306    0.7642227    1.5142465   0.76422271 0.0032844929 -0.00015030603 0.00086132847      10.8619    16.292833    21.723799     3844.485 
      15            0    -832.6272    1.0142306    0.7642227    1.5142465   0.76422271 -0.0016643921 7.6313226e-05 -0.00043616751      10.8619    16.292833    21.723799     3844.485 
      16            0    -832.6272    1.0142306   0.76422271    1.5142465   0.76422271 0.00099247136 -4.5657093e-05 0.00025975934      10.8619    16.292833    21.723799     3844.485 
      17            0    -832.6272    1.0142306   0.76422271    1.5142465   0.76422271 -0.00057086662 2.6430906e-05 -0.00014905865      10.8619    16.292833    21.723799     3844.485 
      18            0    -832.6272    1.0142306   0.76422271    1.5142465   0.76422271 0.00037778514 -1.7731125e-05 9.8134957e-05      10.8619    16.292833    21.723799     3844.485 
      19            0    -832.6272    1.0142306   0.76422271    1.5142465   0.76422271 -0.00019790749 9.467049e-06 -5.103345e-05      10.8619    16.292833    21.723799     3844.485 
      20            0    -832.6272    1.0142306   0.76422271    1.5142465   0.76422271 0.00010852084 -5.4514793e-06 2.7432981e-05      10.8619    16.292833    21.723799     3844.485 
      21            0    -832.6272    1.0142306   0.76422271    1.5142465   0.76422271 -6.0502454e-05 3.335057e-06 -1.4669648e-05      10.8619    16.292833    21.723799     3844.485 
      22            0    -832.6272    1.0142306   0.76422271    1.5142465   0.76422271 2.815331e-05 -1.8862294e-06 6.1190814e-06      10.8619    16.292833    21.723799     3844.485 
      23            0    -832.6272    1.0142306   0.76422271    1.5142465   0.76422271 -1.5876421e-05 1.5203775e-06 -2.4854264e-06      10.8619    16.292833    21.723799     3844.485 
      24            0    -832.6272    1.0142306   0.76422271    1.5142465   0.76422271 1.0796099e-05 -1.6232175e-06 4.4403035e-07      10.8619    16.292833    21.723799     3844.485 
      25            0    -832.6272    1.0142306   0.76422271    1.5142465   0.76422271 -5.2251508e-06 1.2225316e-06 7.0841111e-07      10.8619    16.292833    21.723799     3844.485 
      26            0    -832.6272    1.0142306   0.76422271    1.5142465   0.76422271 5.7421395e-06 -1.985933e-06 -2.1363372e-06      10.8619    16.292833    21.723799     3844.485 
      27            0    -832.6272    1.0142306   0.76422271    1.5142465   0.76422271 -3.7128986e-06 1.7034732e-06 2.2675775e-06      10.8619    16.292833    21.723799     3844.485 
      28            0    -832.6272    1.0142306   0.76422271    1.5142465   0.76422271 3.092999e-06 -1.6826083e-06 -2.4459505e-06      10.8619    16.292833    21.723799     3844.485 
      29            0    -832.6272    1.0142306   0.76422271    1.5142465   0.76422271 -3.1111408e-06 1.934548e-06 2.9717356e-06      10.8619    16.292833    21.723799     3844.485 
      30            0    -832.6272    1.0142306   0.76422271    1.5142465   0.76422271 2.7601533e-06 -1.8624085e-06 -2.9451128e-06      10.8619    16.292833    21.723799     3844.485 
      31            0    -832.6272    1.0142306   0.76422271    1.5142465   0.76422271 -2.9565128e-06 2.0587174e-06 3.2894516e-06      10.8619    16.292833    21.723799     3844.485 
      32            0    -832.6272    1.0142306   0.76422271    1.5142465   0.76422271 2.7474812e-06 -1.9571259e-06 -3.1497554e-06      10.8619    16.292833    21.723799     3844.485 
      33            0    -832.6272    1.0142306   0.76422271    1.5142465   0.76422271 -2.7695667e-06 1.9925159e-06 3.2166164e-06      10.8619    16.292833    21.723799     3844.485 
      34            0    -832.6272    1.0142306   0.76422271    1.5142465   0.76422271 1.8919958e-06 -1.3686155e-06 -2.2132727e-06      10.8619    16.292833    21.723799     3844.485 
      35            0    -832.6272    1.0142306   0.76422271    1.5142465   0.76422271 -2.2542456e-06 1.6375458e-06 2.6519541e-06      10.8619    16.292833    21.723799     3844.485 
      36            0    -832.6272    1.0142306   0.76422271    1.5142465   0.76422271 2.6124123e-06 -1.8997299e-06 -3.0775652e-06      10.8619    16.292833    21.723799     3844.485 
      37            0    -832.6272    1.0142306   0.76422271    1.5142465   0.76422271 -2.3396832e-06 1.7023969e-06 2.7582286e-06      10.8619    16.292833    21.723799     3844.485 
      38            0    -832.6272    1.0142306   0.76422271    1.5142465   0.76422271 2.2810985e-06 -1.6602265e-06 -2.6900993e-06      10.8619    16.292833    21.723799     3844.485 
      39            0    -832.6272    1.0142306   0.76422271    1.5142465   0.76422271 -2.7220534e-06 1.9811663e-06 3.2103394e-06      10.8619    16.292833    21.723799     3844.485 
      40            0    -832.6272    1.0142306   0.76422271    1.5142465   0.76422271 2.0127138e-06 -1.464882e-06 -2.3738128e-06      10.8619    16.292833    21.723799     3844.485 
      41            0    -832.6272    1.0142306   0.76422271    1.5142465   0.76422271 -2.1188108e-06 1.5420889e-06 2.4990568e-06      10.8619    16.292833    21.723799     3844.485 
      42            0    -832.6272    1.0142306   0.76422271    1.5142465   0.76422271 2.3936865e-06 -1.742028e-06 -2.8233156e-06      10.8619    16.292833    21.723799     3844.485 
      43            0    -832.6272    1.0142306   0.76422271    1.5142465   0.76422271 -1.2483194e-06 9.0837824e-07 1.4723003e-06      10.8619    16.292833    21.723799     3844.485 
      44            0    -832.6272    1.0142306   0.76422271    1.5142465   0.76422271 9.3511547e-07 -6.8044118e-07 -1.1029146e-06      10.8619    16.292833    21.723799     3844.485 
      45            0    -832.6272    1.0142306   0.76422271    1.5142465   0.76422271 -5.4031372e-07 3.9309862e-07 6.3718199e-07      10.8619    16.292833    21.723799     3844.485 
      46            0    -832.6272    1.0142306   0.76422271    1.5142465   0.76422271 2.9807407e-07 -2.1666373e-07 -3.512672e-07      10.8619    16.292833    21.723799     3844.485 
      47            0    -832.6272    1.0142306   0.76422271    1.5142465   0.76422271 -1.0770073e-07 7.8015069e-08 1.2668167e-07      10.8619    16.292833    21.723799     3844.485 
      48            0    -832.6272    1.0142306   0.76422271    1.5142465   0.76422271 6.3893342e-08 -4.5693704e-08 -7.4735486e-08      10.8619    16.292833    21.723799     3844.485 
      49            0    -832.6272    1.0142306   0.76422271    1.5142465   0.76422271 -2.2580035e-08 1.5719252e-08 2.6162051e-08      10.8619    16.292833    21.723799     3844.485 
      50            0    -832.6272    1.0142306   0.76422271    1.5142465   0.76422271 1.1816204e-08 -7.7581919e-09 -1.3493045e-08      10.8619    16.292833    21.723799     3844.485 
      51            0    -832.6272    1.0142306   0.76422271    1.5142465   0.76422271 -8.5769794e-09 4.8818439e-09 9.4627303e-09      10.8619    16.292833    21.723799     3844.485 
      52            0    -832.6272    1.0142306   0.76422271    1.5142465   0.76422271 2.4487343e-09 -8.9708194e-10 -2.5791672e-09      10.8619    16.292833    21.723799     3844.485 
      53            0    -832.6272    1.0142306   0.76422271    1.5142465   0.76422271 -1.4214547e-09 -1.3204888e-10 1.406124e-09      10.8619    16.292833    21.723799     3844.485 
Loop time of 0.028116 on 1 procs for 49 steps with 192 atoms

100.0% CPU use with 1 MPI tasks x no OpenMP threads

Minimization stats:
  Stopping criterion = force tolerance
  Energy initial, next-to-last, final = 
        -832.627199814     -832.627199982     -832.627199982
  Force two-norm initial, final = 0.00299909 7.71111e-11
  Force max component initial, final = 0.000327557 9.4835e-12
  Final line search alpha, max atom move = 1 9.4835e-12
  Iterations, force evaluations = 49 98

MPI task timing breakdown:
Section |  min time  |  avg time  |  max time  |%varavg| %total
---------------------------------------------------------------
Pair    | 0.027148   | 0.027148   | 0.027148   |   0.0 | 96.56
Neigh   | 0          | 0          | 0          |   0.0 |  0.00
Comm    | 0.00021768 | 0.00021768 | 0.00021768 |   0.0 |  0.77
Output  | 0.00042462 | 0.00042462 | 0.00042462 |   0.0 |  1.51
Modify  | 0          | 0          | 0          |   0.0 |  0.00
Other   |            | 0.0003257  |            |       |  1.16

Nlocal:    192 ave 192 max 192 min
Histogram: 1 0 0 0 0 0 0 0 0 0
Nghost:    634 ave 634 max 634 min
Histogram: 1 0 0 0 0 0 0 0 0 0
Neighs:    0 ave 0 max 0 min
Histogram: 1 0 0 0 0 0 0 0 0 0
FullNghs:  5376 ave 5376 max 5376 min
Histogram: 1 0 0 0 0 0 0 0 0 0

Total # of neighbors = 5376
Ave neighs/atom = 28
Neighbor list builds = 0
Dangerous builds = 0

# Obtain new stress tensor

variable tmp equal pxx
variable pxx1 equal ${tmp}
variable pxx1 equal 0.764222708860808
variable tmp equal pyy
variable pyy1 equal ${tmp}
variable pyy1 equal 1.51424647201902
variable tmp equal pzz
variable pzz1 equal ${tmp}
variable pzz1 equal 0.76422270887325
variable tmp equal pxy
variable pxy1 equal ${tmp}
variable pxy1 equal -1.42145470356796e-09
variable tmp equal pxz
variable pxz1 equal ${tmp}
variable pxz1 equal -1.32048883975508e-10
variable tmp equal pyz
variable pyz1 equal ${tmp}
variable pyz1 equal 1.40612397259599e-09

# Compute elastic constant from pressure tensor

variable C1neg equal ${d1}
variable C1neg equal 76.4222708883518
variable C2neg equal ${d2}
variable C2neg equal 151.424647210703
variable C3neg equal ${d3}
variable C3neg equal 76.4222708885713
variable C4neg equal ${d4}
variable C4neg equal 1.63445843032472e-07
variable C5neg equal ${d5}
variable C5neg equal -2.56391189113388e-08
variable C6neg equal ${d6}
variable C6neg equal -2.01308043534407e-07

# Reset box and simulation parameters

clear
box tilt large
read_restart restart.equil
  triclinic box = (-0.000949778 -0.00142467 -0.00189956) to (10.8609 16.2914 21.7219) with tilt (0 0 0)
  1 by 1 by 1 MPI processor grid
  192 atoms
include potential.mod
# NOTE: This script can be modified for different pair styles
# See in.elastic for more info.

# Choose potential
pair_style	sw
pair_coeff * * Si.sw Si
Reading potential file Si.sw with DATE: 2007-06-11

# Setup neighbor style
neighbor 1.0 nsq
neigh_modify once no every 1 delay 0 check yes

# Setup minimization style
min_style	     cg
min_modify	     dmax ${dmax} line quadratic
min_modify	     dmax 0.01 line quadratic

# Setup output
thermo		1
thermo_style custom step temp pe press pxx pyy pzz pxy pxz pyz lx ly lz vol
thermo_modify norm no

# Positive deformation

variable delta equal ${up}*${len0}
variable delta equal 1e-06*${len0}
variable delta equal 1e-06*16.2928493352156
variable deltaxy equal ${up}*xy
variable deltaxy equal 1e-06*xy
variable deltaxz equal ${up}*xz
variable deltaxz equal 1e-06*xz
variable deltayz equal ${up}*yz
variable deltayz equal 1e-06*yz
if "${dir} == 1" then    "change_box all x delta 0 ${delta} xy delta ${deltaxy} xz delta ${deltaxz} remap units box"
if "${dir} == 2" then    "change_box all y delta 0 ${delta} yz delta ${deltayz} remap units box"
change_box all y delta 0 ${delta} yz delta ${deltayz} remap units box
change_box all y delta 0 1.62928493352156e-05 yz delta ${deltayz} remap units box
change_box all y delta 0 1.62928493352156e-05 yz delta 0 remap units box
  triclinic box = (-0.000949778 -0.00142467 -0.00189956) to (10.8609 16.2914 21.7219) with tilt (0 0 0)
  triclinic box = (-0.000949778 -0.00142467 -0.00189956) to (10.8609 16.2914 21.7219) with tilt (0 0 0)
if "${dir} == 3" then    "change_box all z delta 0 ${delta} remap units box"
if "${dir} == 4" then    "change_box all yz delta ${delta} remap units box"
if "${dir} == 5" then    "change_box all xz delta ${delta} remap units box"
if "${dir} == 6" then    "change_box all xy delta ${delta} remap units box"

# Relax atoms positions

minimize ${etol} ${ftol} ${maxiter} ${maxeval}
minimize 0 ${ftol} ${maxiter} ${maxeval}
minimize 0 1e-10 ${maxiter} ${maxeval}
minimize 0 1e-10 100 ${maxeval}
minimize 0 1e-10 100 1000
Neighbor list info ...
  1 neighbor list requests
  update every 1 steps, delay 0 steps, check yes
  max neighbors/atom: 2000, page size: 100000
  master list distance cutoff = 4.77118
  ghost atom cutoff = 4.77118
Memory usage per processor = 2.9281 Mbytes
Step Temp PotEng Press Pxx Pyy Pzz Pxy Pxz Pyz Lx Ly Lz Volume 
       4            0    -832.6272   -1.0141636  -0.76415211   -1.5141827  -0.76415604    1.6660522 -0.076088632   0.43726925      10.8619    16.292866    21.723799    3844.4927 
       5            0    -832.6272   -1.0142256  -0.76421788   -1.5142415  -0.76421753  -0.39439912  0.018013204  -0.10350828      10.8619    16.292866    21.723799    3844.4927 
       6            0    -832.6272   -1.0142272  -0.76421943   -1.5142431    -0.764219   0.34143154 -0.015595161  0.089605396      10.8619    16.292866    21.723799    3844.4927 
       7            0    -832.6272   -1.0142271  -0.76421909    -1.514243  -0.76421915  -0.23685394  0.010818928 -0.062159379      10.8619    16.292866    21.723799    3844.4927 
       8            0    -832.6272    -1.014227  -0.76421897    -1.514243  -0.76421904   0.12221861 -0.0055827353  0.032073915      10.8619    16.292866    21.723799    3844.4927 
       9            0    -832.6272    -1.014227    -0.764219   -1.5142431  -0.76421901 -0.061069193 0.0027896814 -0.016025962      10.8619    16.292866    21.723799    3844.4927 
      10            0    -832.6272    -1.014227  -0.76421899   -1.5142431    -0.764219  0.031065808 -0.0014192278 0.0081518984      10.8619    16.292866    21.723799    3844.4927 
      11            0    -832.6272    -1.014227  -0.76421898   -1.5142431  -0.76421898 -0.020718063 0.0009466298 -0.0054361269      10.8619    16.292866    21.723799    3844.4927 
      12            0    -832.6272    -1.014227  -0.76421898   -1.5142431  -0.76421898  0.010753175 -0.00049141396 0.0028211714      10.8619    16.292866    21.723799    3844.4927 
      13            0    -832.6272    -1.014227  -0.76421898   -1.5142431  -0.76421898 -0.0058917255 0.00026933531 -0.0015454922      10.8619    16.292866    21.723799    3844.4927 
      14            0    -832.6272    -1.014227  -0.76421898   -1.5142431  -0.76421898 0.0032844276 -0.00015022533 0.00086131128      10.8619    16.292866    21.723799    3844.4927 
      15            0    -832.6272    -1.014227  -0.76421898   -1.5142431  -0.76421898 -0.0016643551 7.6233019e-05 -0.00043615788      10.8619    16.292866    21.723799    3844.4927 
      16            0    -832.6272    -1.014227  -0.76421898   -1.5142431  -0.76421898 0.00099244814 -4.5567345e-05 0.00025975337      10.8619    16.292866    21.723799    3844.4927 
      17            0    -832.6272    -1.014227  -0.76421898   -1.5142431  -0.76421898 -0.00057085194 2.6333355e-05 -0.00014905492      10.8619    16.292866    21.723799    3844.4927 
      18            0    -832.6272    -1.014227  -0.76421898   -1.5142431  -0.76421898 0.00037777625 -1.7600781e-05 9.8132817e-05      10.8619    16.292866    21.723799    3844.4927 
      19            0    -832.6272    -1.014227  -0.76421898   -1.5142431  -0.76421898 -0.00019790402 9.3499878e-06 -5.1032771e-05      10.8619    16.292866    21.723799    3844.4927 
      20            0    -832.6272    -1.014227  -0.76421898   -1.5142431  -0.76421898 0.00010852172 -5.3160181e-06 2.7433508e-05      10.8619    16.292866    21.723799    3844.4927 
      21            0    -832.6272    -1.014227  -0.76421898   -1.5142431  -0.76421898 -6.0507055e-05 3.1786821e-06 -1.4671233e-05      10.8619    16.292866    21.723799    3844.4927 
      22            0    -832.6272    -1.014227  -0.76421898   -1.5142431  -0.76421898 2.8159842e-05 -1.7219082e-06 6.1212472e-06      10.8619    16.292866    21.723799    3844.4927 
      23            0    -832.6272    -1.014227  -0.76421898   -1.5142431  -0.76421898 -1.5886451e-05 1.3026546e-06 -2.4886322e-06      10.8619    16.292866    21.723799    3844.4927 
      24            0    -832.6272    -1.014227  -0.76421898   -1.5142431  -0.76421898 1.0810962e-05 -1.3136069e-06 4.4868242e-07      10.8619    16.292866    21.723799    3844.4927 
      25            0    -832.6272    -1.014227  -0.76421898   -1.5142431  -0.76421898 -5.2383775e-06 9.5287367e-07 7.0437204e-07      10.8619    16.292866    21.723799    3844.4927 
      26            0    -832.6272    -1.014227  -0.76421898   -1.5142431  -0.76421898 5.7656112e-06 -1.5134053e-06 -2.1292889e-06      10.8619    16.292866    21.723799    3844.4927 
      27            0    -832.6272    -1.014227  -0.76421898   -1.5142431  -0.76421898 -3.733812e-06 1.2829442e-06 2.2612942e-06      10.8619    16.292866    21.723799    3844.4927 
      28            0    -832.6272    -1.014227  -0.76421898   -1.5142431  -0.76421898 3.1141882e-06 -1.2600484e-06 -2.4396652e-06      10.8619    16.292866    21.723799    3844.4927 
      29            0    -832.6272    -1.014227  -0.76421898   -1.5142431  -0.76421898 -3.1359946e-06 1.4431152e-06 2.9645309e-06      10.8619    16.292866    21.723799    3844.4927 
      30            0    -832.6272    -1.014227  -0.76421898   -1.5142431  -0.76421898 2.7843409e-06 -1.3862576e-06 -2.938192e-06      10.8619    16.292866    21.723799    3844.4927 
      31            0    -832.6272    -1.014227  -0.76421898   -1.5142431  -0.76421898 -2.983516e-06 1.5312003e-06 3.2818879e-06      10.8619    16.292866    21.723799    3844.4927 
      32            0    -832.6272    -1.014227  -0.76421898   -1.5142431  -0.76421898 2.7732918e-06 -1.4549619e-06 -3.142662e-06      10.8619    16.292866    21.723799    3844.4927 
      33            0    -832.6272    -1.014227  -0.76421898   -1.5142431  -0.76421898 -2.7958214e-06 1.4810582e-06 3.2094762e-06      10.8619    16.292866    21.723799    3844.4927 
      34            0    -832.6272    -1.014227  -0.76421898   -1.5142431  -0.76421898 1.9101039e-06 -1.017318e-06 -2.2084119e-06      10.8619    16.292866    21.723799    3844.4927 
      35            0    -832.6272    -1.014227  -0.76421898   -1.5142431  -0.76421898 -2.2759961e-06 1.217295e-06 2.6460794e-06      10.8619    16.292866    21.723799    3844.4927 
      36            0    -832.6272    -1.014227  -0.76421898   -1.5142431  -0.76421898 2.6380856e-06 -1.4123716e-06 -3.0711672e-06      10.8619    16.292866    21.723799    3844.4927 
      37            0    -832.6272    -1.014227  -0.76421898   -1.5142431  -0.76421898 -2.3635713e-06 1.2659576e-06 2.7533453e-06      10.8619    16.292866    21.723799    3844.4927 
      38            0    -832.6272    -1.014227  -0.76421898   -1.5142431  -0.76421898 2.3060183e-06 -1.2353082e-06 -2.687029e-06      10.8619    16.292866    21.723799    3844.4927 
      39            0    -832.6272    -1.014227  -0.76421898   -1.5142431  -0.76421898 -2.7573139e-06 1.4770898e-06 3.2131148e-06      10.8619    16.292866    21.723799    3844.4927 
      40            0    -832.6272    -1.014227  -0.76421898   -1.5142431  -0.76421898 2.0462618e-06 -1.0962162e-06 -2.3846631e-06      10.8619    16.292866    21.723799    3844.4927 
      41            0    -832.6272    -1.014227  -0.76421898   -1.5142431  -0.76421898 -2.1719303e-06 1.1635851e-06 2.5312375e-06      10.8619    16.292866    21.723799    3844.4927 
      42            0    -832.6272    -1.014227  -0.76421898   -1.5142431  -0.76421898 2.4875753e-06 -1.332779e-06 -2.8992368e-06      10.8619    16.292866    21.723799    3844.4927 
      43            0    -832.6272    -1.014227  -0.76421898   -1.5142431  -0.76421898 -1.3188729e-06 7.0674079e-07 1.5371264e-06      10.8619    16.292866    21.723799    3844.4927 
      44            0    -832.6272    -1.014227  -0.76421898   -1.5142431  -0.76421898 1.0036874e-06 -5.3803187e-07 -1.1698343e-06      10.8619    16.292866    21.723799    3844.4927 
      45            0    -832.6272    -1.014227  -0.76421898   -1.5142431  -0.76421898 -5.8520017e-07 3.1398319e-07 6.8217684e-07      10.8619    16.292866    21.723799    3844.4927 
      46            0    -832.6272    -1.014227  -0.76421898   -1.5142431  -0.76421898 3.2411908e-07 -1.7423563e-07 -3.7807613e-07      10.8619    16.292866    21.723799    3844.4927 
      47            0    -832.6272    -1.014227  -0.76421898   -1.5142431  -0.76421898 -1.1696011e-07 6.3132001e-08 1.3678135e-07      10.8619    16.292866    21.723799    3844.4927 
      48            0    -832.6272    -1.014227  -0.76421898   -1.5142431  -0.76421898 6.859582e-08 -3.7441812e-08 -8.0915845e-08      10.8619    16.292866    21.723799    3844.4927 
      49            0    -832.6272    -1.014227  -0.76421898   -1.5142431  -0.76421898 -2.3651631e-08 1.3192514e-08 2.8370002e-08      10.8619    16.292866    21.723799    3844.4927 
      50            0    -832.6272    -1.014227  -0.76421898   -1.5142431  -0.76421898 1.1724041e-08 -6.9131588e-09 -1.462948e-08      10.8619    16.292866    21.723799    3844.4927 
      51            0    -832.6272    -1.014227  -0.76421898   -1.5142431  -0.76421898 -7.4369874e-09 4.9948683e-09 1.0283964e-08      10.8619    16.292866    21.723799    3844.4927 
      52            0    -832.6272    -1.014227  -0.76421898   -1.5142431  -0.76421898 1.3181158e-09 -1.4453854e-09 -2.8273185e-09      10.8619    16.292866    21.723799    3844.4927 
      53            0    -832.6272    -1.014227  -0.76421898   -1.5142431  -0.76421898 3.839982e-10 8.9388642e-10 1.554698e-09      10.8619    16.292866    21.723799    3844.4927 
Loop time of 0.0282941 on 1 procs for 49 steps with 192 atoms

100.0% CPU use with 1 MPI tasks x no OpenMP threads

Minimization stats:
  Stopping criterion = force tolerance
  Energy initial, next-to-last, final = 
        -832.627199814     -832.627199982     -832.627199982
  Force two-norm initial, final = 0.00299909 7.70926e-11
  Force max component initial, final = 0.000327556 9.58198e-12
  Final line search alpha, max atom move = 1 9.58198e-12
  Iterations, force evaluations = 49 98

MPI task timing breakdown:
Section |  min time  |  avg time  |  max time  |%varavg| %total
---------------------------------------------------------------
Pair    | 0.027286   | 0.027286   | 0.027286   |   0.0 | 96.44
Neigh   | 0          | 0          | 0          |   0.0 |  0.00
Comm    | 0.00022459 | 0.00022459 | 0.00022459 |   0.0 |  0.79
Output  | 0.00044918 | 0.00044918 | 0.00044918 |   0.0 |  1.59
Modify  | 0          | 0          | 0          |   0.0 |  0.00
Other   |            | 0.000334   |            |       |  1.18

Nlocal:    192 ave 192 max 192 min
Histogram: 1 0 0 0 0 0 0 0 0 0
Nghost:    634 ave 634 max 634 min
Histogram: 1 0 0 0 0 0 0 0 0 0
Neighs:    0 ave 0 max 0 min
Histogram: 1 0 0 0 0 0 0 0 0 0
FullNghs:  5376 ave 5376 max 5376 min
Histogram: 1 0 0 0 0 0 0 0 0 0

Total # of neighbors = 5376
Ave neighs/atom = 28
Neighbor list builds = 0
Dangerous builds = 0

# Obtain new stress tensor

variable tmp equal pe
variable e1 equal ${tmp}
variable e1 equal -832.62719998231
variable tmp equal press
variable p1 equal ${tmp}
variable p1 equal -1.01422702216239
variable tmp equal pxx
variable pxx1 equal ${tmp}
variable pxx1 equal -0.764218976822003
variable tmp equal pyy
variable pyy1 equal ${tmp}
variable pyy1 equal -1.51424311284356
variable tmp equal pzz
variable pzz1 equal ${tmp}
variable pzz1 equal -0.764218976821597
variable tmp equal pxy
variable pxy1 equal ${tmp}
variable pxy1 equal 3.83998204107901e-10
variable tmp equal pxz
variable pxz1 equal ${tmp}
variable pxz1 equal 8.93886421981144e-10
variable tmp equal pyz
variable pyz1 equal ${tmp}
variable pyz1 equal 1.55469802666236e-09

# Compute elastic constant from pressure tensor

variable C1pos equal ${d1}
variable C1pos equal 76.4218976799293
variable C2pos equal ${d2}
variable C2pos equal 151.424311275555
variable C3pos equal ${d3}
variable C3pos equal 76.4218976809133
variable C4pos equal ${d4}
variable C4pos equal -1.78303248439109e-07
variable C5pos equal ${d5}
variable C5pos equal -7.69544116843264e-08
variable C6pos equal ${d6}
variable C6pos equal 2.07627527668206e-08

# Combine positive and negative

variable C1${dir} equal 0.5*(${C1neg}+${C1pos})
variable C12 equal 0.5*(${C1neg}+${C1pos})
variable C12 equal 0.5*(76.4222708883518+${C1pos})
variable C12 equal 0.5*(76.4222708883518+76.4218976799293)
variable C2${dir} equal 0.5*(${C2neg}+${C2pos})
variable C22 equal 0.5*(${C2neg}+${C2pos})
variable C22 equal 0.5*(151.424647210703+${C2pos})
variable C22 equal 0.5*(151.424647210703+151.424311275555)
variable C3${dir} equal 0.5*(${C3neg}+${C3pos})
variable C32 equal 0.5*(${C3neg}+${C3pos})
variable C32 equal 0.5*(76.4222708885713+${C3pos})
variable C32 equal 0.5*(76.4222708885713+76.4218976809133)
variable C4${dir} equal 0.5*(${C4neg}+${C4pos})
variable C42 equal 0.5*(${C4neg}+${C4pos})
variable C42 equal 0.5*(1.63445843032472e-07+${C4pos})
variable C42 equal 0.5*(1.63445843032472e-07+-1.78303248439109e-07)
variable C5${dir} equal 0.5*(${C5neg}+${C5pos})
variable C52 equal 0.5*(${C5neg}+${C5pos})
variable C52 equal 0.5*(-2.56391189113388e-08+${C5pos})
variable C52 equal 0.5*(-2.56391189113388e-08+-7.69544116843264e-08)
variable C6${dir} equal 0.5*(${C6neg}+${C6pos})
variable C62 equal 0.5*(${C6neg}+${C6pos})
variable C62 equal 0.5*(-2.01308043534407e-07+${C6pos})
variable C62 equal 0.5*(-2.01308043534407e-07+2.07627527668206e-08)

# Delete dir to make sure it is not reused

variable dir delete

# uzz Perturbation

variable dir equal 3
include displace.mod
# NOTE: This script should not need to be
# modified. See in.elastic for more info.
#
# Find which reference length to use

if "${dir} == 1" then    "variable len0 equal ${lx0}"
if "${dir} == 2" then    "variable len0 equal ${ly0}"
if "${dir} == 3" then    "variable len0 equal ${lz0}"
variable len0 equal ${lz0}
variable len0 equal 21.7237991136209
if "${dir} == 4" then    "variable len0 equal ${lz0}"
if "${dir} == 5" then    "variable len0 equal ${lz0}"
if "${dir} == 6" then    "variable len0 equal ${ly0}"

# Reset box and simulation parameters

clear
box tilt large
read_restart restart.equil
  triclinic box = (-0.000949778 -0.00142467 -0.00189956) to (10.8609 16.2914 21.7219) with tilt (0 0 0)
  1 by 1 by 1 MPI processor grid
  192 atoms
include potential.mod
# NOTE: This script can be modified for different pair styles
# See in.elastic for more info.

# Choose potential
pair_style	sw
pair_coeff * * Si.sw Si
Reading potential file Si.sw with DATE: 2007-06-11

# Setup neighbor style
neighbor 1.0 nsq
neigh_modify once no every 1 delay 0 check yes

# Setup minimization style
min_style	     cg
min_modify	     dmax ${dmax} line quadratic
min_modify	     dmax 0.01 line quadratic

# Setup output
thermo		1
thermo_style custom step temp pe press pxx pyy pzz pxy pxz pyz lx ly lz vol
thermo_modify norm no

# Negative deformation

variable delta equal -${up}*${len0}
variable delta equal -1e-06*${len0}
variable delta equal -1e-06*21.7237991136209
variable deltaxy equal -${up}*xy
variable deltaxy equal -1e-06*xy
variable deltaxz equal -${up}*xz
variable deltaxz equal -1e-06*xz
variable deltayz equal -${up}*yz
variable deltayz equal -1e-06*yz
if "${dir} == 1" then    "change_box all x delta 0 ${delta} xy delta ${deltaxy} xz delta ${deltaxz} remap units box"
if "${dir} == 2" then    "change_box all y delta 0 ${delta} yz delta ${deltayz} remap units box"
if "${dir} == 3" then    "change_box all z delta 0 ${delta} remap units box"
change_box all z delta 0 ${delta} remap units box
change_box all z delta 0 -2.17237991136209e-05 remap units box
  triclinic box = (-0.000949778 -0.00142467 -0.00189956) to (10.8609 16.2914 21.7219) with tilt (0 0 0)
if "${dir} == 4" then    "change_box all yz delta ${delta} remap units box"
if "${dir} == 5" then    "change_box all xz delta ${delta} remap units box"
if "${dir} == 6" then    "change_box all xy delta ${delta} remap units box"

# Relax atoms positions

minimize ${etol} ${ftol} ${maxiter} ${maxeval}
minimize 0 ${ftol} ${maxiter} ${maxeval}
minimize 0 1e-10 ${maxiter} ${maxeval}
minimize 0 1e-10 100 ${maxeval}
minimize 0 1e-10 100 1000
Neighbor list info ...
  1 neighbor list requests
  update every 1 steps, delay 0 steps, check yes
  max neighbors/atom: 2000, page size: 100000
  master list distance cutoff = 4.77118
  ghost atom cutoff = 4.77118
Memory usage per processor = 2.9281 Mbytes
Step Temp PotEng Press Pxx Pyy Pzz Pxy Pxz Pyz Lx Ly Lz Volume 
       4            0    -832.6272     1.014294   0.76428958   0.76428315    1.5143094    1.6660605 -0.076089012   0.43727149      10.8619    16.292849    21.723777     3844.485 
       5            0    -832.6272     1.014232   0.76422381   0.76422433    1.5142479  -0.39440084  0.018013282  -0.10350854      10.8619    16.292849    21.723777     3844.485 
       6            0    -832.6272    1.0142305   0.76422225   0.76422276    1.5142464   0.34143304 -0.015595229  0.089605482      10.8619    16.292849    21.723777     3844.485 
       7            0    -832.6272    1.0142306    0.7642226    0.7642228    1.5142463  -0.23685534  0.010818992 -0.062159392      10.8619    16.292849    21.723777     3844.485 
       8            0    -832.6272    1.0142306   0.76422272   0.76422278    1.5142464   0.12221955 -0.0055827783  0.032073817      10.8619    16.292849    21.723777     3844.485 
       9            0    -832.6272    1.0142306   0.76422269   0.76422273    1.5142464 -0.061069657 0.0027897027  -0.01602577      10.8619    16.292849    21.723777     3844.485 
      10            0    -832.6272    1.0142306   0.76422269   0.76422273    1.5142464  0.031066091 -0.0014192408 0.0081516743      10.8619    16.292849    21.723777     3844.485 
      11            0    -832.6272    1.0142306    0.7642227   0.76422272    1.5142465 -0.020718298 0.00094664065 -0.0054358487      10.8619    16.292849    21.723777     3844.485 
      12            0    -832.6272    1.0142306    0.7642227   0.76422271    1.5142465  0.010753322 -0.00049142059 0.0028209305      10.8619    16.292849    21.723777     3844.485 
      13            0    -832.6272    1.0142306    0.7642227   0.76422271    1.5142465 -0.0058918191 0.00026933943 -0.0015452772      10.8619    16.292849    21.723777     3844.485 
      14            0    -832.6272    1.0142306    0.7642227   0.76422271    1.5142465 0.0032844997 -0.00015022843 0.00086110853      10.8619    16.292849    21.723777     3844.485 
      15            0    -832.6272    1.0142306    0.7642227   0.76422271    1.5142465 -0.0016644179 7.6235685e-05 -0.00043595065      10.8619    16.292849    21.723777     3844.485 
      16            0    -832.6272    1.0142306   0.76422271   0.76422271    1.5142465 0.00099251448 -4.557013e-05 0.00025951821      10.8619    16.292849    21.723777     3844.485 
      17            0    -832.6272    1.0142306   0.76422271   0.76422271    1.5142465 -0.00057092208 2.6336227e-05 -0.0001487976      10.8619    16.292849    21.723777     3844.485 
      18            0    -832.6272    1.0142306   0.76422271   0.76422271    1.5142465 0.00037786923 -1.76046e-05 9.7787916e-05      10.8619    16.292849    21.723777     3844.485 
      19            0    -832.6272    1.0142306   0.76422271   0.76422271    1.5142465 -0.00019798677  9.35339e-06 -5.0722424e-05      10.8619    16.292849    21.723777     3844.485 
      20            0    -832.6272    1.0142306   0.76422271   0.76422271    1.5142465 0.0001086177 -5.3199782e-06 2.7073702e-05      10.8619    16.292849    21.723777     3844.485 
      21            0    -832.6272    1.0142306   0.76422271   0.76422271    1.5142465 -6.0617505e-05 3.1832835e-06 -1.425517e-05      10.8619    16.292849    21.723777     3844.485 
      22            0    -832.6272    1.0142306   0.76422271   0.76422271    1.5142465 2.8275891e-05 -1.7268142e-06 5.6839055e-06      10.8619    16.292849    21.723777     3844.485 
      23            0    -832.6272    1.0142306   0.76422271   0.76422271    1.5142465 -1.6040169e-05 1.3092564e-06 -1.9092508e-06      10.8619    16.292849    21.723777     3844.485 
      24            0    -832.6272    1.0142306   0.76422271   0.76422271    1.5142465 1.102973e-05 -1.3231959e-06 -3.7471491e-07      10.8619    16.292849    21.723777     3844.485 
      25            0    -832.6272    1.0142306   0.76422271   0.76422271    1.5142465 -5.4288462e-06 9.6141243e-07 1.4210235e-06      10.8619    16.292849    21.723777     3844.485 
      26            0    -832.6272    1.0142306   0.76422271   0.76422271    1.5142465 6.099323e-06 -1.5285562e-06 -3.384773e-06      10.8619    16.292849    21.723777     3844.485 
      27            0    -832.6272    1.0142306   0.76422271   0.76422271    1.5142465 -4.0308361e-06 1.2965503e-06 3.3786041e-06      10.8619    16.292849    21.723777     3844.485 
      28            0    -832.6272    1.0142306   0.76422271   0.76422271    1.5142465 3.4125784e-06 -1.2737646e-06 -3.5624245e-06      10.8619    16.292849    21.723777     3844.485 
      29            0    -832.6272    1.0142306   0.76422271   0.76422271    1.5142465 -3.4829045e-06 1.4591384e-06 4.270033e-06      10.8619    16.292849    21.723777     3844.485 
      30            0    -832.6272    1.0142306   0.76422271   0.76422271    1.5142465 3.1203398e-06 -1.4018437e-06 -4.2025683e-06      10.8619    16.292849    21.723777     3844.485 
      31            0    -832.6272    1.0142306   0.76422271   0.76422271    1.5142465 -3.3555873e-06 1.5484029e-06 4.6823906e-06      10.8619    16.292849    21.723777     3844.485 
      32            0    -832.6272    1.0142306   0.76422271   0.76422271    1.5142465 3.1274392e-06 -1.4711967e-06 -4.4759137e-06      10.8619    16.292849    21.723777     3844.485 
      33            0    -832.6272    1.0142306   0.76422271   0.76422271    1.5142465 -3.1564474e-06 1.4973273e-06 4.5672478e-06      10.8619    16.292849    21.723777     3844.485 
      34            0    -832.6272    1.0142306   0.76422271   0.76422271    1.5142465 2.1575119e-06 -1.0281861e-06 -3.1408229e-06      10.8619    16.292849    21.723777     3844.485 
      35            0    -832.6272    1.0142306   0.76422271   0.76422271    1.5142465 -2.5715783e-06 1.2298106e-06 3.7611849e-06      10.8619    16.292849    21.723777     3844.485 
      36            0    -832.6272    1.0142306   0.76422271   0.76422271    1.5142465 2.9779309e-06 -1.425246e-06 -4.3602791e-06      10.8619    16.292849    21.723777     3844.485 
      37            0    -832.6272    1.0142306   0.76422271   0.76422271    1.5142465 -2.6621568e-06 1.2746266e-06 3.8999383e-06      10.8619    16.292849    21.723777     3844.485 
      38            0    -832.6272    1.0142306   0.76422271   0.76422271    1.5142465 2.5849428e-06 -1.2379308e-06 -3.7877258e-06      10.8619    16.292849    21.723777     3844.485 
[...]
      11            0    -832.6272 -1.6492847e-07 -6.070549e-07 2.1413074e-07 -1.0186126e-07  -0.59016988 0.0017247814 -0.0099081702      10.8619    16.292849    21.723799    3844.4888 
      12            0    -832.6272 -1.9239132e-07 -5.6965998e-07 1.6316193e-07 -1.7067591e-07   -0.5506237 -0.00093168628 0.0053518817      10.8619    16.292849    21.723799    3844.4888 
      13            0    -832.6272 -1.7918784e-07 -5.9224778e-07 1.8573034e-07 -1.3104608e-07  -0.57230373 0.00052467696 -0.0030136282      10.8619    16.292849    21.723799    3844.4888 
      14            0    -832.6272 -1.8675167e-07 -5.7811028e-07 1.6928103e-07 -1.5142576e-07  -0.56007112 -0.00029708562 0.0017061696      10.8619    16.292849    21.723799    3844.4888 
      15            0    -832.6272 -1.8147165e-07 -5.8397383e-07 1.7813436e-07 -1.3857548e-07  -0.56674891 0.00015154804 -0.0008700352      10.8619    16.292849    21.723799    3844.4888 
      16            0    -832.6272 -1.8368864e-07 -5.7909726e-07 1.7298667e-07 -1.4495534e-07  -0.56314383 -9.0691368e-05 0.00052035855      10.8619    16.292849    21.723799    3844.4888 
      17            0    -832.6272 -1.8141976e-07 -5.8027694e-07 1.7678944e-07 -1.407718e-07  -0.56527087 5.2271401e-05 -0.00029957614      10.8619    16.292849    21.723799    3844.4888 
      18            0    -832.6272 -1.8188247e-07 -5.7779585e-07 1.7528511e-07 -1.4313666e-07   -0.5639787 -3.4629596e-05 0.00019799316      10.8619    16.292849    21.723799    3844.4888 
      19            0    -832.6272 -1.8107575e-07 -5.7819827e-07 1.7679065e-07 -1.4181961e-07  -0.56476293 1.8159809e-05 -0.00010347407      10.8619    16.292849    21.723799    3844.4888 
      20            0    -832.6272 -1.8121769e-07 -5.7730178e-07 1.7641373e-07 -1.4276503e-07  -0.56434584 -9.9698352e-06 5.6293081e-05      10.8619    16.292849    21.723799    3844.4888 
      21            0    -832.6272 -1.8098776e-07 -5.7739182e-07 1.7686537e-07 -1.4243682e-07  -0.56457526 5.5704057e-06 -3.0867611e-05      10.8619    16.292849    21.723799    3844.4888 
      22            0    -832.6272 -1.8105888e-07 -5.7713125e-07 1.7672519e-07 -1.4277058e-07  -0.56445567 -2.6047325e-06 1.3774854e-05      10.8619    16.292849    21.723799    3844.4888 
      23            0    -832.6272 -1.8102103e-07 -5.7715649e-07 1.7680971e-07 -1.4271631e-07  -0.56451407  1.48626e-06 -6.9639027e-06      10.8619    16.292849    21.723799    3844.4888 
      24            0    -832.6272 -1.8101153e-07 -5.7705668e-07 1.7680856e-07 -1.4278648e-07  -0.56448002 -1.0328915e-06 3.6972719e-06      10.8619    16.292849    21.723799    3844.4888 
      25            0    -832.6272 -1.8099131e-07 -5.7705856e-07 1.7684437e-07 -1.4275974e-07  -0.56449929 5.1650851e-07 -1.0201217e-06      10.8619    16.292849    21.723799    3844.4888 
      26            0    -832.6272 -1.8098579e-07 -5.7701981e-07 1.7683585e-07 -1.4277342e-07  -0.56448764 -5.9195534e-07 -1.0343938e-08      10.8619    16.292849    21.723799    3844.4888 
      27            0    -832.6272 -1.8099983e-07 -5.7704479e-07 1.7682863e-07 -1.4278334e-07  -0.56449655 3.9876288e-07 7.4510123e-07      10.8619    16.292849    21.723799    3844.4888 
      28            0    -832.6272 -1.8102238e-07 -5.77059e-07 1.7679495e-07 -1.4280308e-07  -0.56449104 -3.422048e-07 -1.0847727e-06      10.8619    16.292849    21.723799    3844.4888 
      29            0    -832.6272 -1.8100986e-07 -5.770541e-07 1.7680827e-07 -1.4278376e-07  -0.56449541 3.5341485e-07 1.5172591e-06      10.8619    16.292849    21.723799    3844.4888 
      30            0    -832.6272 -1.8097273e-07 -5.7700671e-07 1.7684054e-07 -1.4275201e-07  -0.56449173 -3.1907635e-07 -1.603201e-06      10.8619    16.292849    21.723799    3844.4888 
      31            0    -832.6272 -1.8098174e-07 -5.7702623e-07 1.7683674e-07 -1.4275575e-07  -0.56449504 3.4425678e-07 1.8296505e-06      10.8619    16.292849    21.723799    3844.4888 
      32            0    -832.6272 -1.809633e-07 -5.7700342e-07 1.7685295e-07 -1.4273943e-07  -0.56449187 -3.2171646e-07 -1.7778576e-06      10.8619    16.292849    21.723799    3844.4888 
      33            0    -832.6272 -1.8093123e-07 -5.7696931e-07 1.768861e-07 -1.4271047e-07  -0.56449486 3.2520747e-07 1.8270391e-06      10.8619    16.292849    21.723799    3844.4888 
      34            0    -832.6272 -1.809835e-07 -5.7702161e-07 1.7683427e-07 -1.4276316e-07  -0.56449236 -2.2253351e-07 -1.2616509e-06      10.8619    16.292849    21.723799    3844.4888 
      35            0    -832.6272 -1.8093178e-07 -5.7697474e-07 1.7689046e-07 -1.4271107e-07  -0.56449456 2.6545965e-07 1.5160183e-06      10.8619    16.292849    21.723799    3844.4888 
      36            0    -832.6272 -1.8097727e-07 -5.7700973e-07 1.768372e-07 -1.4275928e-07  -0.56449198 -3.0810654e-07 -1.762881e-06      10.8619    16.292849    21.723799    3844.4888 
      37            0    -832.6272 -1.8097599e-07 -5.770171e-07 1.7684045e-07 -1.4275133e-07  -0.56449461 2.767268e-07 1.585112e-06      10.8619    16.292849    21.723799    3844.4888 
      38            0    -832.6272 -1.8094102e-07 -5.7697109e-07 1.7687138e-07 -1.4272334e-07  -0.56449215 -2.7142487e-07 -1.5558331e-06      10.8619    16.292849    21.723799    3844.4888 
      39            0    -832.6272 -1.8097898e-07 -5.7701724e-07 1.7684233e-07 -1.4276202e-07  -0.56449485 3.3028076e-07 1.8936037e-06      10.8619    16.292849    21.723799    3844.4888 
      40            0    -832.6272 -1.809971e-07 -5.7703565e-07 1.7681698e-07 -1.4277262e-07  -0.56449223 -2.5346793e-07 -1.4536134e-06      10.8619    16.292849    21.723799    3844.4888 
      41            0    -832.6272 -1.8098121e-07 -5.7702193e-07 1.7683648e-07 -1.4275817e-07  -0.56449468 2.9165625e-07 1.6728127e-06      10.8619    16.292849    21.723799    3844.4888 
      42            0    -832.6272 -1.8099239e-07 -5.770283e-07 1.768231e-07 -1.4277196e-07  -0.56449162 -3.890611e-07 -2.2313165e-06      10.8619    16.292849    21.723799    3844.4888 
      43            0    -832.6272 -1.809848e-07 -5.7702374e-07 1.768299e-07 -1.4276056e-07  -0.56449453 2.5818076e-07 1.4805811e-06      10.8619    16.292849    21.723799    3844.4888 
      44            0    -832.6272 -1.8094633e-07 -5.7698785e-07 1.7687293e-07 -1.4272409e-07   -0.5644922 -2.6006694e-07 -1.4907081e-06      10.8619    16.292849    21.723799    3844.4888 
      45            0    -832.6272 -1.8097663e-07 -5.7701745e-07 1.7684003e-07 -1.4275248e-07  -0.56449421 1.8839519e-07 1.0790066e-06      10.8619    16.292849    21.723799    3844.4888 
      46            0    -832.6272 -1.8102629e-07 -5.7705924e-07 1.7678197e-07 -1.428016e-07  -0.56449283 -1.2075394e-07 -6.9069788e-07      10.8619    16.292849    21.723799    3844.4888 
      47            0    -832.6272 -1.8097034e-07 -5.7700954e-07 1.7684912e-07 -1.4275059e-07  -0.56449358 4.7520365e-08 2.7073948e-07      10.8619    16.292849    21.723799    3844.4888 
      48            0    -832.6272 -1.8096025e-07 -5.7699888e-07 1.7686178e-07 -1.4274365e-07  -0.56449324 -2.9021898e-08 -1.6338096e-07      10.8619    16.292849    21.723799    3844.4888 
      49            0    -832.6272 -1.8099671e-07 -5.7703337e-07 1.7682341e-07 -1.4278017e-07  -0.56449341 1.0504464e-08 5.785873e-08      10.8619    16.292849    21.723799    3844.4888 
      50            0    -832.6272 -1.8098045e-07 -5.7702261e-07 1.7683557e-07 -1.4275432e-07  -0.56449334 -5.6744921e-09 -2.9903651e-08      10.8619    16.292849    21.723799    3844.4888 
      51            0    -832.6272 -1.8098328e-07 -5.7701959e-07 1.7682534e-07 -1.4275558e-07  -0.56449338 4.2707609e-09 2.0966246e-08      10.8619    16.292849    21.723799    3844.4888 
      52            0    -832.6272 -1.8099659e-07 -5.7702975e-07 1.7681839e-07 -1.427784e-07  -0.56449336 -1.4158665e-09 -5.6380348e-09      10.8619    16.292849    21.723799    3844.4888 
      53            0    -832.6272 -1.8097662e-07 -5.7701327e-07 1.7683643e-07 -1.4275304e-07  -0.56449337 1.2049711e-09 2.8808029e-09      10.8619    16.292849    21.723799    3844.4888 
Loop time of 0.0282671 on 1 procs for 49 steps with 192 atoms

100.0% CPU use with 1 MPI tasks x no OpenMP threads

Minimization stats:
  Stopping criterion = force tolerance
  Energy initial, next-to-last, final = 
        -832.627199819     -832.627199983     -832.627199983
  Force two-norm initial, final = 0.00295789 7.70806e-11
  Force max component initial, final = 0.000311954 9.51097e-12
  Final line search alpha, max atom move = 1 9.51097e-12
  Iterations, force evaluations = 49 98

MPI task timing breakdown:
Section |  min time  |  avg time  |  max time  |%varavg| %total
---------------------------------------------------------------
Pair    | 0.027266   | 0.027266   | 0.027266   |   0.0 | 96.46
Neigh   | 0          | 0          | 0          |   0.0 |  0.00
Comm    | 0.00022316 | 0.00022316 | 0.00022316 |   0.0 |  0.79
Output  | 0.0004518  | 0.0004518  | 0.0004518  |   0.0 |  1.60
Modify  | 0          | 0          | 0          |   0.0 |  0.00
Other   |            | 0.0003262  |            |       |  1.15

Nlocal:    192 ave 192 max 192 min
Histogram: 1 0 0 0 0 0 0 0 0 0
Nghost:    634 ave 634 max 634 min
Histogram: 1 0 0 0 0 0 0 0 0 0
Neighs:    0 ave 0 max 0 min
Histogram: 1 0 0 0 0 0 0 0 0 0
FullNghs:  5376 ave 5376 max 5376 min
Histogram: 1 0 0 0 0 0 0 0 0 0

Total # of neighbors = 5376
Ave neighs/atom = 28
Neighbor list builds = 0
Dangerous builds = 0

# Obtain new stress tensor

variable tmp equal pe
variable e1 equal ${tmp}
variable e1 equal -832.627199983438
variable tmp equal press
variable p1 equal ${tmp}
variable p1 equal -1.80976622486588e-07
variable tmp equal pxx
variable pxx1 equal ${tmp}
variable pxx1 equal -5.77013266657938e-07
variable tmp equal pyy
variable pyy1 equal ${tmp}
variable pyy1 equal 1.76836434333631e-07
variable tmp equal pzz
variable pzz1 equal ${tmp}
variable pzz1 equal -1.42753035135457e-07
variable tmp equal pxy
variable pxy1 equal ${tmp}
variable pxy1 equal -0.564493370564959
variable tmp equal pxz
variable pxz1 equal ${tmp}
variable pxz1 equal 1.20497110672051e-09
variable tmp equal pyz
variable pyz1 equal ${tmp}
variable pyz1 equal 2.88080292081351e-09

# Compute elastic constant from pressure tensor

variable C1pos equal ${d1}
variable C1pos equal 5.76990556988738e-05
variable C2pos equal ${d2}
variable C2pos equal -1.76924442163758e-05
variable C3pos equal ${d3}
variable C3pos equal 1.42740571503962e-05
variable C4pos equal ${d4}
variable C4pos equal -3.10913737854224e-07
variable C5pos equal ${d5}
variable C5pos equal -1.08062880158263e-07
variable C6pos equal ${d6}
variable C6pos equal 56.4493371156585

# Combine positive and negative

variable C1${dir} equal 0.5*(${C1neg}+${C1pos})
variable C16 equal 0.5*(${C1neg}+${C1pos})
variable C16 equal 0.5*(-5.76967937416251e-05+${C1pos})
variable C16 equal 0.5*(-5.76967937416251e-05+5.76990556988738e-05)
variable C2${dir} equal 0.5*(${C2neg}+${C2pos})
variable C26 equal 0.5*(${C2neg}+${C2pos})
variable C26 equal 0.5*(1.76952665479846e-05+${C2pos})
variable C26 equal 0.5*(1.76952665479846e-05+-1.76924442163758e-05)
variable C3${dir} equal 0.5*(${C3neg}+${C3pos})
variable C36 equal 0.5*(${C3neg}+${C3pos})
variable C36 equal 0.5*(-1.42719669786947e-05+${C3pos})
variable C36 equal 0.5*(-1.42719669786947e-05+1.42740571503962e-05)
variable C4${dir} equal 0.5*(${C4neg}+${C4pos})
variable C46 equal 0.5*(${C4neg}+${C4pos})
variable C46 equal 0.5*(-2.30880640220586e-08+${C4pos})
variable C46 equal 0.5*(-2.30880640220586e-08+-3.10913737854224e-07)
variable C5${dir} equal 0.5*(${C5neg}+${C5pos})
variable C56 equal 0.5*(${C5neg}+${C5pos})
variable C56 equal 0.5*(1.86963288030472e-08+${C5pos})
variable C56 equal 0.5*(1.86963288030472e-08+-1.08062880158263e-07)
variable C6${dir} equal 0.5*(${C6neg}+${C6pos})
variable C66 equal 0.5*(${C6neg}+${C6pos})
variable C66 equal 0.5*(56.4493366367426+${C6pos})
variable C66 equal 0.5*(56.4493366367426+56.4493371156585)

# Delete dir to make sure it is not reused

variable dir delete

# Output final values

variable C11all equal ${C11}
variable C11all equal 151.424479259158
variable C22all equal ${C22}
variable C22all equal 151.424479243129
variable C33all equal ${C33}
variable C33all equal 151.424479258575

variable C12all equal 0.5*(${C12}+${C21})
variable C12all equal 0.5*(76.4220842841406+${C21})
variable C12all equal 0.5*(76.4220842841406+76.4220842917577)
variable C13all equal 0.5*(${C13}+${C31})
variable C13all equal 0.5*(76.4220842908774+${C31})
variable C13all equal 0.5*(76.4220842908774+76.4220842913836)
variable C23all equal 0.5*(${C23}+${C32})
variable C23all equal 0.5*(76.4220842900723+${C32})
variable C23all equal 0.5*(76.4220842900723+76.4220842847423)

variable C44all equal ${C44}
variable C44all equal 56.4493367793402
variable C55all equal ${C55}
variable C55all equal 56.449336719512
variable C66all equal ${C66}
variable C66all equal 56.4493368762005

variable C14all equal 0.5*(${C14}+${C41})
variable C14all equal 0.5*(-4.06375703849619e-10+${C41})
variable C14all equal 0.5*(-4.06375703849619e-10+-3.58294946766785e-08)
variable C15all equal 0.5*(${C15}+${C51})
variable C15all equal 0.5*(-1.7659020176995e-09+${C51})
variable C15all equal 0.5*(-1.7659020176995e-09+8.31834286722812e-08)
variable C16all equal 0.5*(${C16}+${C61})
variable C16all equal 0.5*(1.1309786243516e-09+${C61})
variable C16all equal 0.5*(1.1309786243516e-09+-5.0148611167307e-08)

variable C24all equal 0.5*(${C24}+${C42})
variable C24all equal 0.5*(-8.69893587501433e-10+${C42})
variable C24all equal 0.5*(-8.69893587501433e-10+-7.42870270331851e-09)
variable C25all equal 0.5*(${C25}+${C52})
variable C25all equal 0.5*(-1.22074330335008e-09+${C52})
variable C25all equal 0.5*(-1.22074330335008e-09+-5.12967652978326e-08)
variable C26all equal 0.5*(${C26}+${C62})
variable C26all equal 0.5*(1.41116580440035e-09+${C62})
variable C26all equal 0.5*(1.41116580440035e-09+-9.02726453837932e-08)

variable C34all equal 0.5*(${C34}+${C43})
variable C34all equal 0.5*(-9.06486668300827e-10+${C43})
variable C34all equal 0.5*(-9.06486668300827e-10+1.70942260157315e-08)
variable C35all equal 0.5*(${C35}+${C53})
variable C35all equal 0.5*(-1.4973196419502e-09+${C53})
variable C35all equal 0.5*(-1.4973196419502e-09+-2.6318289601238e-08)
variable C36all equal 0.5*(${C36}+${C63})
variable C36all equal 0.5*(1.04508585075019e-09+${C63})
variable C36all equal 0.5*(1.04508585075019e-09+5.41156778632465e-08)

variable C45all equal 0.5*(${C45}+${C54})
variable C45all equal 0.5*(5.02057427417051e-08+${C54})
variable C45all equal 0.5*(5.02057427417051e-08+2.25303033106834e-08)
variable C46all equal 0.5*(${C46}+${C64})
variable C46all equal 0.5*(-1.67000900938141e-07+${C64})
variable C46all equal 0.5*(-1.67000900938141e-07+-9.95970336762591e-08)
variable C56all equal 0.5*(${C56}+${C65})
variable C56all equal 0.5*(-4.46832756776079e-08+${C65})
variable C56all equal 0.5*(-4.46832756776079e-08+1.42476604152305e-08)

# Average moduli for cubic crystals

variable C11cubic equal (${C11all}+${C22all}+${C33all})/3.0
variable C11cubic equal (151.424479259158+${C22all}+${C33all})/3.0
variable C11cubic equal (151.424479259158+151.424479243129+${C33all})/3.0
variable C11cubic equal (151.424479259158+151.424479243129+151.424479258575)/3.0
variable C12cubic equal (${C12all}+${C13all}+${C23all})/3.0
variable C12cubic equal (76.4220842879491+${C13all}+${C23all})/3.0
variable C12cubic equal (76.4220842879491+76.4220842911305+${C23all})/3.0
variable C12cubic equal (76.4220842879491+76.4220842911305+76.4220842874073)/3.0
variable C44cubic equal (${C44all}+${C55all}+${C66all})/3.0
variable C44cubic equal (56.4493367793402+${C55all}+${C66all})/3.0
variable C44cubic equal (56.4493367793402+56.449336719512+${C66all})/3.0
variable C44cubic equal (56.4493367793402+56.449336719512+56.4493368762005)/3.0

variable bulkmodulus equal (${C11cubic}+2*${C12cubic})/3.0
variable bulkmodulus equal (151.424479253621+2*${C12cubic})/3.0
variable bulkmodulus equal (151.424479253621+2*76.422084288829)/3.0
variable shearmodulus1 equal ${C44cubic}
variable shearmodulus1 equal 56.4493367916842
variable shearmodulus2 equal (${C11cubic}-${C12cubic})/2.0
variable shearmodulus2 equal (151.424479253621-${C12cubic})/2.0
variable shearmodulus2 equal (151.424479253621-76.422084288829)/2.0
variable poissonratio equal 1.0/(1.0+${C11cubic}/${C12cubic})
variable poissonratio equal 1.0/(1.0+151.424479253621/${C12cubic})
variable poissonratio equal 1.0/(1.0+151.424479253621/76.422084288829)

# For Stillinger-Weber silicon, the analytical results
# are known to be (E. R. Cowley, 1988):
#               C11 = 151.4 GPa
#               C12 = 76.4 GPa
#               C44 = 56.4 GPa

print "========================================="
=========================================
print "Components of the Elastic Constant Tensor"
Components of the Elastic Constant Tensor
print "========================================="
=========================================

print "Elastic Constant C11all = ${C11all} ${cunits}"
Elastic Constant C11all = 151.424479259158 GPa
print "Elastic Constant C22all = ${C22all} ${cunits}"
Elastic Constant C22all = 151.424479243129 GPa
print "Elastic Constant C33all = ${C33all} ${cunits}"
Elastic Constant C33all = 151.424479258575 GPa

print "Elastic Constant C12all = ${C12all} ${cunits}"
Elastic Constant C12all = 76.4220842879491 GPa
print "Elastic Constant C13all = ${C13all} ${cunits}"
Elastic Constant C13all = 76.4220842911305 GPa
print "Elastic Constant C23all = ${C23all} ${cunits}"
Elastic Constant C23all = 76.4220842874073 GPa

print "Elastic Constant C44all = ${C44all} ${cunits}"
Elastic Constant C44all = 56.4493367793402 GPa
print "Elastic Constant C55all = ${C55all} ${cunits}"
Elastic Constant C55all = 56.449336719512 GPa
print "Elastic Constant C66all = ${C66all} ${cunits}"
Elastic Constant C66all = 56.4493368762005 GPa

print "Elastic Constant C14all = ${C14all} ${cunits}"
Elastic Constant C14all = -1.81179351902641e-08 GPa
print "Elastic Constant C15all = ${C15all} ${cunits}"
Elastic Constant C15all = 4.07087633272908e-08 GPa
print "Elastic Constant C16all = ${C16all} ${cunits}"
Elastic Constant C16all = -2.45088162714777e-08 GPa

print "Elastic Constant C24all = ${C24all} ${cunits}"
Elastic Constant C24all = -4.14929814540997e-09 GPa
print "Elastic Constant C25all = ${C25all} ${cunits}"
Elastic Constant C25all = -2.62587543005913e-08 GPa
print "Elastic Constant C26all = ${C26all} ${cunits}"
Elastic Constant C26all = -4.44307397896964e-08 GPa

print "Elastic Constant C34all = ${C34all} ${cunits}"
Elastic Constant C34all = 8.09386967371534e-09 GPa
print "Elastic Constant C35all = ${C35all} ${cunits}"
Elastic Constant C35all = -1.39078046215941e-08 GPa
print "Elastic Constant C36all = ${C36all} ${cunits}"
Elastic Constant C36all = 2.75803818569983e-08 GPa

print "Elastic Constant C45all = ${C45all} ${cunits}"
Elastic Constant C45all = 3.63680230261943e-08 GPa
print "Elastic Constant C46all = ${C46all} ${cunits}"
Elastic Constant C46all = -1.332989673072e-07 GPa
print "Elastic Constant C56all = ${C56all} ${cunits}"
Elastic Constant C56all = -1.52178076311887e-08 GPa

print "========================================="
=========================================
print "Average properties for a cubic crystal"
Average properties for a cubic crystal
print "========================================="
=========================================

print "Bulk Modulus = ${bulkmodulus} ${cunits}"
Bulk Modulus = 101.422882610426 GPa
print "Shear Modulus 1 = ${shearmodulus1} ${cunits}"
Shear Modulus 1 = 56.4493367916842 GPa
print "Shear Modulus 2 = ${shearmodulus2} ${cunits}"
Shear Modulus 2 = 37.501197482396 GPa
print "Poisson Ratio = ${poissonratio}"
Poisson Ratio = 0.335410300250549
Total wall time: 0:00:00
