LAMMPS (1 Mar 2016)
# Compute elastic constant tensor for a crystal at finite temperature
#
# WARNING: This script attempts to measure small differences in
# statistical averages generated by finite temperature MD simulations.
# This creates many more opportunities for errors to occur, compared
# to the zero temperature version provided in examples/ELASTIC.
# Hence, it is always a good idea to start with the zero temperature
# calculation, before attempting to use this script.
#
# Written by Aidan Thompson (Sandia, athomps@sandia.gov)
#
#  This script uses the following three include files.
#
#   init.mod      (must be modified for different crystal structures)
# 	       	  Define units, MD parameters, deformation parameters,
#		  and initial configuration of the atoms and simulation cell.
#
#
#   potential.mod    (must be modified for different pair styles)
# 		     Define pair style and other attributes
#		     not stored in restart file
#
#
#   displace.mod    (displace.mod should not need to be modified)
# 		    Perform positive and negative box displacements
# 		    in direction ${dir} and size ${up}.
# 		    It uses the resultant changes
#		    in stress to compute one
# 		    row of the elastic stiffness tensor
#
#		    Inputs variables:
#		    	   dir = the Voigt deformation component
#		    		    (1,2,3,4,5,6)
#		    Global constants:
#       	    	   up = the deformation magnitude (strain units)
#       		   cfac = conversion from LAMMPS pressure units to
#               	   output units for elastic constants
#
#
#  To run this on a different system, it should only be necessary to
#  modify the files init.mod and potential.mod. In order to calculate
#  the elastic constants correctly, care must be taken to specify
#  the correct units in init.mod (units, cfac and cunits). It is also
#  important to verify that the MD sampling of stress components
#  is generating accurate statistical averages.
#  One indication of this is that the elastic constants are insensitive
#  to the choice of the variable ${up} in init.mod. Another is to
#  check for finite size effects.
#

include init.mod
# NOTE: This script can be modified for different atomic structures,
# units, etc. See in.elastic for more info.
#

# Define the finite deformation size. Try several values of this
# variable to verify that results do not depend on it.
variable up equal 2.0e-2

# metal units, elastic constants in GPa
units		metal
variable cfac equal 1.0e-4
variable cunits string GPa

# Define MD parameters
variable nevery equal 10                  # sampling interval
variable nrepeat equal 10                 # number of samples
variable nfreq equal ${nevery}*${nrepeat} # length of one average
variable nfreq equal 10*${nrepeat} 
variable nfreq equal 10*10 
variable nthermo equal ${nfreq}           # interval for thermo output
variable nthermo equal 100           
variable nequil equal 10*${nthermo}       # length of equilibration run
variable nequil equal 10*100       
variable nrun equal 3*${nthermo}          # length of equilibrated run
variable nrun equal 3*100          
variable temp equal 300.0                 # temperature of initial sample
variable timestep equal 0.001             # timestep
variable mass1 equal 28.06                # mass
variable adiabatic equal 0                # adiabatic (1) or isothermal (2)
variable tdamp equal 0.01                 # time constant for thermostat
variable seed equal 123457                # seed for thermostat

# generate the box and atom positions using a diamond lattice
variable a equal 5.431

boundary	p p p

lattice         diamond $a
lattice         diamond 5.431
Lattice spacing in x,y,z = 5.431 5.431 5.431
region		box prism 0 3.0 0 3.0 0 3.0 0.0 0.0 0.0
create_box	1 box
Created triclinic box = (0 0 0) to (16.293 16.293 16.293) with tilt (0 0 0)
  1 by 1 by 1 MPI processor grid
create_atoms	1 box
Created 216 atoms
mass 1 ${mass1}
mass 1 28.06
velocity	all create ${temp} 87287
velocity	all create 300 87287



# Compute initial state

variable thermostat equal 1
include potential.mod
# NOTE: This script can be modified for different pair styles
# See in.elastic for more info.

reset_timestep 0

# Choose potential
pair_style	sw
pair_coeff * * Si.sw Si
Reading potential file Si.sw with DATE: 2007-06-11

# Setup neighbor style
neighbor 1.0 nsq
neigh_modify once no every 1 delay 0 check yes

# Setup output

fix avp all ave/time  ${nevery} ${nrepeat} ${nfreq} c_thermo_press mode vector
fix avp all ave/time  10 ${nrepeat} ${nfreq} c_thermo_press mode vector
fix avp all ave/time  10 10 ${nfreq} c_thermo_press mode vector
fix avp all ave/time  10 10 100 c_thermo_press mode vector
thermo		${nthermo}
thermo		100
thermo_style custom step temp pe press f_avp[1] f_avp[2] f_avp[3] f_avp[4] f_avp[5] f_avp[6]
thermo_modify norm no

# Setup MD

timestep ${timestep}
timestep 0.001
fix 4 all nve
if "${thermostat} == 1" then    "fix 5 all langevin ${temp} ${temp} ${tdamp} ${seed}"
fix 5 all langevin ${temp} ${temp} ${tdamp} ${seed}
fix 5 all langevin 300 ${temp} ${tdamp} ${seed}
fix 5 all langevin 300 300 ${tdamp} ${seed}
fix 5 all langevin 300 300 0.01 ${seed}
fix 5 all langevin 300 300 0.01 123457


run ${nequil}
run 1000
Neighbor list info ...
  1 neighbor list requests
  update every 1 steps, delay 0 steps, check yes
  max neighbors/atom: 2000, page size: 100000
  master list distance cutoff = 4.77118
  ghost atom cutoff = 4.77118
Memory usage per processor = 2.43038 Mbytes
Step Temp PotEng Press avp[1] avp[2] avp[3] avp[4] avp[5] avp[6] 
       0          300    -936.7056    2030.7885            0            0            0            0            0            0 
     100    284.01497   -928.98073     3575.828    3464.9183    3539.3041    3415.0122   -94.035787    934.99238    533.54374 
     200    282.71807   -927.39623    3857.4242    3587.2719    3438.1462    3825.5333   -584.07173    146.32963    369.24296 
     300    311.35679   -927.42168    3798.8522    3531.1566    3831.4682     3568.222   -547.86207   -104.78377   -598.52997 
     400    273.72994   -928.91045    3275.9911    3678.2411     3849.164    3690.7758     406.5121   -220.74024    176.13112 
     500    289.57407   -928.65997    3422.8313    3840.7484    3479.3981    3570.5899   -9.6358147   -20.463096    231.40257 
     600    309.32316   -928.46789    3681.0829    3705.2082    3655.8266    3607.0741    725.09887    487.67811    96.094732 
     700     302.6372   -928.41455    3497.8982    3686.2819    3687.6307    3583.7532   -1130.2051   -257.92743    -689.1501 
     800    315.92442    -927.8497    3546.5981    3466.6015    3540.7378    3232.6292   -715.22244    -533.4919    -527.4219 
     900    317.33348   -928.07294    3839.5909    3641.8656    3894.4652    3486.5118   -932.84795    1835.4258    245.50036 
    1000    283.36617   -928.40306    3243.5587    3461.9029    3579.1126    3622.0769   -1630.5294   -1104.2851     1361.234 
Loop time of 0.554357 on 1 procs for 1000 steps with 216 atoms

Performance: 155.856 ns/day, 0.154 hours/ns, 1803.892 timesteps/s
99.9% CPU use with 1 MPI tasks x no OpenMP threads

MPI task timing breakdown:
Section |  min time  |  avg time  |  max time  |%varavg| %total
---------------------------------------------------------------
Pair    | 0.54061    | 0.54061    | 0.54061    |   0.0 | 97.52
Neigh   | 0          | 0          | 0          |   0.0 |  0.00
Comm    | 0.0022655  | 0.0022655  | 0.0022655  |   0.0 |  0.41
Output  | 0.00010586 | 0.00010586 | 0.00010586 |   0.0 |  0.02
Modify  | 0.010256   | 0.010256   | 0.010256   |   0.0 |  1.85
Other   |            | 0.001122   |            |       |  0.20

Nlocal:    216 ave 216 max 216 min
Histogram: 1 0 0 0 0 0 0 0 0 0
Nghost:    648 ave 648 max 648 min
Histogram: 1 0 0 0 0 0 0 0 0 0
Neighs:    0 ave 0 max 0 min
Histogram: 1 0 0 0 0 0 0 0 0 0
FullNghs:  6048 ave 6048 max 6048 min
Histogram: 1 0 0 0 0 0 0 0 0 0

Total # of neighbors = 6048
Ave neighs/atom = 28
Neighbor list builds = 0
Dangerous builds = 0

if "${adiabatic} == 1" then "variable thermostat equal 0" else "variable thermostat equal 1"
variable thermostat equal 1

print ${thermostat}
print 1
1

include potential.mod
# NOTE: This script can be modified for different pair styles
# See in.elastic for more info.

reset_timestep 0

# Choose potential
pair_style	sw
pair_coeff * * Si.sw Si
Reading potential file Si.sw with DATE: 2007-06-11

# Setup neighbor style
neighbor 1.0 nsq
neigh_modify once no every 1 delay 0 check yes

# Setup output

fix avp all ave/time  ${nevery} ${nrepeat} ${nfreq} c_thermo_press mode vector
fix avp all ave/time  10 ${nrepeat} ${nfreq} c_thermo_press mode vector
fix avp all ave/time  10 10 ${nfreq} c_thermo_press mode vector
fix avp all ave/time  10 10 100 c_thermo_press mode vector
thermo		${nthermo}
thermo		100
thermo_style custom step temp pe press f_avp[1] f_avp[2] f_avp[3] f_avp[4] f_avp[5] f_avp[6]
WARNING: New thermo_style command, previous thermo_modify settings will be lost (../output.cpp:680)
thermo_modify norm no

# Setup MD

timestep ${timestep}
timestep 0.001
fix 4 all nve
if "${thermostat} == 1" then    "fix 5 all langevin ${temp} ${temp} ${tdamp} ${seed}"
fix 5 all langevin ${temp} ${temp} ${tdamp} ${seed}
fix 5 all langevin 300 ${temp} ${tdamp} ${seed}
fix 5 all langevin 300 300 ${tdamp} ${seed}
fix 5 all langevin 300 300 0.01 ${seed}
fix 5 all langevin 300 300 0.01 123457


run ${nrun}
run 300
Memory usage per processor = 2.43038 Mbytes
Step Temp PotEng Press avp[1] avp[2] avp[3] avp[4] avp[5] avp[6] 
       0    283.36617   -928.40306    3243.5587            0            0            0            0            0            0 
     100    284.45775   -928.62497    3465.4438    3326.6185    3586.6364    3350.3006   -273.12423    1259.5293     535.9479 
     200    283.57388   -927.34991    3843.1729    3526.0814    3396.8659    3733.6747   -529.97968    120.50465    362.43108 
     300    311.03943   -927.41473    3796.1667    3540.8869    3820.4955    3533.9846     -544.493   -117.91402   -600.04926 
Loop time of 0.183242 on 1 procs for 300 steps with 216 atoms

Performance: 141.452 ns/day, 0.170 hours/ns, 1637.179 timesteps/s
100.0% CPU use with 1 MPI tasks x no OpenMP threads

MPI task timing breakdown:
Section |  min time  |  avg time  |  max time  |%varavg| %total
---------------------------------------------------------------
Pair    | 0.17881    | 0.17881    | 0.17881    |   0.0 | 97.58
Neigh   | 0          | 0          | 0          |   0.0 |  0.00
Comm    | 0.000741   | 0.000741   | 0.000741   |   0.0 |  0.40
Output  | 2.9087e-05 | 2.9087e-05 | 2.9087e-05 |   0.0 |  0.02
Modify  | 0.0033069  | 0.0033069  | 0.0033069  |   0.0 |  1.80
Other   |            | 0.0003505  |            |       |  0.19

Nlocal:    216 ave 216 max 216 min
Histogram: 1 0 0 0 0 0 0 0 0 0
Nghost:    648 ave 648 max 648 min
Histogram: 1 0 0 0 0 0 0 0 0 0
Neighs:    0 ave 0 max 0 min
Histogram: 1 0 0 0 0 0 0 0 0 0
FullNghs:  6040 ave 6040 max 6040 min
Histogram: 1 0 0 0 0 0 0 0 0 0

Total # of neighbors = 6040
Ave neighs/atom = 27.963
Neighbor list builds = 0
Dangerous builds = 0

variable pxx0 equal f_avp[1]
variable pyy0 equal f_avp[2]
variable pzz0 equal f_avp[3]
variable pxy0 equal f_avp[4]
variable pxz0 equal f_avp[5]
variable pyz0 equal f_avp[6]

variable tmp equal lx
variable lx0 equal ${tmp}
variable lx0 equal 16.293
variable tmp equal ly
variable ly0 equal ${tmp}
variable ly0 equal 16.293
variable tmp equal lz
variable lz0 equal ${tmp}
variable lz0 equal 16.293

# These formulas define the derivatives w.r.t. strain components
# Constants uses $, variables use v_
variable d1 equal -(v_pxx1-${pxx0})/(v_delta/v_len0)*${cfac}
variable d1 equal -(v_pxx1-3540.88688880179)/(v_delta/v_len0)*${cfac}
variable d1 equal -(v_pxx1-3540.88688880179)/(v_delta/v_len0)*0.0001
variable d2 equal -(v_pyy1-${pyy0})/(v_delta/v_len0)*${cfac}
variable d2 equal -(v_pyy1-3820.49552694769)/(v_delta/v_len0)*${cfac}
variable d2 equal -(v_pyy1-3820.49552694769)/(v_delta/v_len0)*0.0001
variable d3 equal -(v_pzz1-${pzz0})/(v_delta/v_len0)*${cfac}
variable d3 equal -(v_pzz1-3533.98458860133)/(v_delta/v_len0)*${cfac}
variable d3 equal -(v_pzz1-3533.98458860133)/(v_delta/v_len0)*0.0001
variable d4 equal -(v_pyz1-${pyz0})/(v_delta/v_len0)*${cfac}
variable d4 equal -(v_pyz1--600.049263335114)/(v_delta/v_len0)*${cfac}
variable d4 equal -(v_pyz1--600.049263335114)/(v_delta/v_len0)*0.0001
variable d5 equal -(v_pxz1-${pxz0})/(v_delta/v_len0)*${cfac}
variable d5 equal -(v_pxz1--117.91401933812)/(v_delta/v_len0)*${cfac}
variable d5 equal -(v_pxz1--117.91401933812)/(v_delta/v_len0)*0.0001
variable d6 equal -(v_pxy1-${pxy0})/(v_delta/v_len0)*${cfac}
variable d6 equal -(v_pxy1--544.493001729104)/(v_delta/v_len0)*${cfac}
variable d6 equal -(v_pxy1--544.493001729104)/(v_delta/v_len0)*0.0001

# Write restart
write_restart restart.equil

# uxx Perturbation

variable dir equal 1
include displace.mod
# NOTE: This script should not need to be
# modified. See in.elastic for more info.
#
# Find which reference length to use

if "${dir} == 1" then    "variable len0 equal ${lx0}"
variable len0 equal ${lx0}
variable len0 equal 16.293
if "${dir} == 2" then    "variable len0 equal ${ly0}"
if "${dir} == 3" then    "variable len0 equal ${lz0}"
if "${dir} == 4" then    "variable len0 equal ${lz0}"
if "${dir} == 5" then    "variable len0 equal ${lz0}"
if "${dir} == 6" then    "variable len0 equal ${ly0}"

# Reset box and simulation parameters

clear
box tilt large
read_restart restart.equil
  triclinic box = (0 0 0) to (16.293 16.293 16.293) with tilt (0 0 0)
  1 by 1 by 1 MPI processor grid
  216 atoms
include potential.mod
# NOTE: This script can be modified for different pair styles
# See in.elastic for more info.

reset_timestep 0

# Choose potential
pair_style	sw
pair_coeff * * Si.sw Si
Reading potential file Si.sw with DATE: 2007-06-11

# Setup neighbor style
neighbor 1.0 nsq
neigh_modify once no every 1 delay 0 check yes

# Setup output

fix avp all ave/time  ${nevery} ${nrepeat} ${nfreq} c_thermo_press mode vector
fix avp all ave/time  10 ${nrepeat} ${nfreq} c_thermo_press mode vector
fix avp all ave/time  10 10 ${nfreq} c_thermo_press mode vector
fix avp all ave/time  10 10 100 c_thermo_press mode vector
thermo		${nthermo}
thermo		100
thermo_style custom step temp pe press f_avp[1] f_avp[2] f_avp[3] f_avp[4] f_avp[5] f_avp[6]
thermo_modify norm no

# Setup MD

timestep ${timestep}
timestep 0.001
fix 4 all nve
if "${thermostat} == 1" then    "fix 5 all langevin ${temp} ${temp} ${tdamp} ${seed}"
fix 5 all langevin ${temp} ${temp} ${tdamp} ${seed}
fix 5 all langevin 300 ${temp} ${tdamp} ${seed}
fix 5 all langevin 300 300 ${tdamp} ${seed}
fix 5 all langevin 300 300 0.01 ${seed}
fix 5 all langevin 300 300 0.01 123457



# Negative deformation

variable delta equal -${up}*${len0}
variable delta equal -0.02*${len0}
variable delta equal -0.02*16.293
variable deltaxy equal -${up}*xy
variable deltaxy equal -0.02*xy
variable deltaxz equal -${up}*xz
variable deltaxz equal -0.02*xz
variable deltayz equal -${up}*yz
variable deltayz equal -0.02*yz
if "${dir} == 1" then    "change_box all x delta 0 ${delta} xy delta ${deltaxy} xz delta ${deltaxz} remap units box"
change_box all x delta 0 ${delta} xy delta ${deltaxy} xz delta ${deltaxz} remap units box
change_box all x delta 0 -0.32586 xy delta ${deltaxy} xz delta ${deltaxz} remap units box
change_box all x delta 0 -0.32586 xy delta -0 xz delta ${deltaxz} remap units box
change_box all x delta 0 -0.32586 xy delta -0 xz delta -0 remap units box
  triclinic box = (0 0 0) to (15.9671 16.293 16.293) with tilt (0 0 0)
  triclinic box = (0 0 0) to (15.9671 16.293 16.293) with tilt (0 0 0)
  triclinic box = (0 0 0) to (15.9671 16.293 16.293) with tilt (0 0 0)
if "${dir} == 2" then    "change_box all y delta 0 ${delta} yz delta ${deltayz} remap units box"
if "${dir} == 3" then    "change_box all z delta 0 ${delta} remap units box"
if "${dir} == 4" then    "change_box all yz delta ${delta} remap units box"
if "${dir} == 5" then    "change_box all xz delta ${delta} remap units box"
if "${dir} == 6" then    "change_box all xy delta ${delta} remap units box"

# Run MD

run ${nequil}
run 1000
Neighbor list info ...
  1 neighbor list requests
  update every 1 steps, delay 0 steps, check yes
  max neighbors/atom: 2000, page size: 100000
  master list distance cutoff = 4.77118
  ghost atom cutoff = 4.77118
Memory usage per processor = 1.81279 Mbytes
Step Temp PotEng Press avp[1] avp[2] avp[3] avp[4] avp[5] avp[6] 
       0    311.03943   -926.52118    24879.292            0            0            0            0            0            0 
     100    284.08328   -927.61527    24414.965    34132.275    19850.188    19532.732   -207.41006    1406.6506    752.56793 
     200    283.76298   -926.20317    24811.408    34122.009    19518.358    19936.043   -635.35031    177.28132    490.55182 
     300    309.98592   -926.21902    24687.692    33999.325    19983.982    19666.089   -649.37235   -50.759352   -615.93562 
     400    274.10725   -927.95394    24284.059     34259.75    20035.177     19853.56    383.75547   -203.32066    201.32462 
     500    289.28027   -927.80506    24450.355    34491.326    19671.254    19806.537   -21.498036   -9.5433915    215.73329 
     600    309.00974   -927.62994    24730.676    34390.819    19867.978    19847.937    742.68439    488.07652    129.15087 
     700    302.16876   -927.56061    24535.468    34354.225    19912.876    19813.493   -1167.3743     -246.685   -731.19663 
     800    315.74405   -927.01774    24537.154    34097.845    19764.809    19448.595   -741.79282   -509.89956   -559.61151 
     900    317.51524   -927.22478    24868.463    34263.522    20115.572    19720.455   -968.76697    1864.4988    281.34338 
    1000    283.51112   -927.57878    24266.796    34093.559    19803.052    19832.638   -1671.0348   -1141.5818    1424.2998 
Loop time of 0.768902 on 1 procs for 1000 steps with 216 atoms

Performance: 112.368 ns/day, 0.214 hours/ns, 1300.556 timesteps/s
100.0% CPU use with 1 MPI tasks x no OpenMP threads

MPI task timing breakdown:
Section |  min time  |  avg time  |  max time  |%varavg| %total
---------------------------------------------------------------
Pair    | 0.75521    | 0.75521    | 0.75521    |   0.0 | 98.22
Neigh   | 0          | 0          | 0          |   0.0 |  0.00
Comm    | 0.0022874  | 0.0022874  | 0.0022874  |   0.0 |  0.30
Output  | 0.00010204 | 0.00010204 | 0.00010204 |   0.0 |  0.01
Modify  | 0.010228   | 0.010228   | 0.010228   |   0.0 |  1.33
Other   |            | 0.001073   |            |       |  0.14

Nlocal:    216 ave 216 max 216 min
Histogram: 1 0 0 0 0 0 0 0 0 0
Nghost:    648 ave 648 max 648 min
Histogram: 1 0 0 0 0 0 0 0 0 0
Neighs:    0 ave 0 max 0 min
Histogram: 1 0 0 0 0 0 0 0 0 0
FullNghs:  6044 ave 6044 max 6044 min
Histogram: 1 0 0 0 0 0 0 0 0 0

Total # of neighbors = 6044
Ave neighs/atom = 27.9815
Neighbor list builds = 0
Dangerous builds = 0
include potential.mod
# NOTE: This script can be modified for different pair styles
# See in.elastic for more info.

reset_timestep 0

# Choose potential
pair_style	sw
pair_coeff * * Si.sw Si
Reading potential file Si.sw with DATE: 2007-06-11

# Setup neighbor style
neighbor 1.0 nsq
neigh_modify once no every 1 delay 0 check yes

# Setup output

fix avp all ave/time  ${nevery} ${nrepeat} ${nfreq} c_thermo_press mode vector
fix avp all ave/time  10 ${nrepeat} ${nfreq} c_thermo_press mode vector
fix avp all ave/time  10 10 ${nfreq} c_thermo_press mode vector
fix avp all ave/time  10 10 100 c_thermo_press mode vector
thermo		${nthermo}
thermo		100
thermo_style custom step temp pe press f_avp[1] f_avp[2] f_avp[3] f_avp[4] f_avp[5] f_avp[6]
WARNING: New thermo_style command, previous thermo_modify settings will be lost (../output.cpp:680)
thermo_modify norm no

# Setup MD

timestep ${timestep}
timestep 0.001
fix 4 all nve
if "${thermostat} == 1" then    "fix 5 all langevin ${temp} ${temp} ${tdamp} ${seed}"
fix 5 all langevin ${temp} ${temp} ${tdamp} ${seed}
fix 5 all langevin 300 ${temp} ${tdamp} ${seed}
fix 5 all langevin 300 300 ${tdamp} ${seed}
fix 5 all langevin 300 300 0.01 ${seed}
fix 5 all langevin 300 300 0.01 123457


run ${nrun}
run 300
Memory usage per processor = 1.81279 Mbytes
Step Temp PotEng Press avp[1] avp[2] avp[3] avp[4] avp[5] avp[6] 
       0    283.51112   -927.57878    24266.796            0            0            0            0            0            0 
     100    284.30885   -927.80342    24474.942    33971.993    19799.715    19574.282   -255.05286    1273.6794    548.08443 
     200    284.40001   -926.51675    24886.712    34186.111    19611.221    19972.015   -509.82315    115.14804    381.11267 
     300    310.83002   -926.58264    24820.165    34161.868    20046.475    19754.064   -582.30158   -81.519908   -630.11165 
Loop time of 0.232962 on 1 procs for 300 steps with 216 atoms

Performance: 111.263 ns/day, 0.216 hours/ns, 1287.764 timesteps/s
100.0% CPU use with 1 MPI tasks x no OpenMP threads

MPI task timing breakdown:
Section |  min time  |  avg time  |  max time  |%varavg| %total
---------------------------------------------------------------
Pair    | 0.22883    | 0.22883    | 0.22883    |   0.0 | 98.22
Neigh   | 0          | 0          | 0          |   0.0 |  0.00
Comm    | 0.00068069 | 0.00068069 | 0.00068069 |   0.0 |  0.29
Output  | 3.0994e-05 | 3.0994e-05 | 3.0994e-05 |   0.0 |  0.01
Modify  | 0.0031033  | 0.0031033  | 0.0031033  |   0.0 |  1.33
Other   |            | 0.0003207  |            |       |  0.14

Nlocal:    216 ave 216 max 216 min
Histogram: 1 0 0 0 0 0 0 0 0 0
Nghost:    648 ave 648 max 648 min
Histogram: 1 0 0 0 0 0 0 0 0 0
Neighs:    0 ave 0 max 0 min
Histogram: 1 0 0 0 0 0 0 0 0 0
FullNghs:  6048 ave 6048 max 6048 min
Histogram: 1 0 0 0 0 0 0 0 0 0

Total # of neighbors = 6048
Ave neighs/atom = 28
Neighbor list builds = 0
Dangerous builds = 0

# Obtain new stress tensor

variable pxx1 equal f_avp[1]
variable pyy1 equal f_avp[2]
variable pzz1 equal f_avp[3]
variable pxy1 equal f_avp[4]
variable pxz1 equal f_avp[5]
variable pyz1 equal f_avp[6]

# Compute elastic constant from pressure tensor

variable C1neg equal ${d1}
variable C1neg equal 153.104907313306
variable C2neg equal ${d2}
variable C2neg equal 81.1298980576771
variable C3neg equal ${d3}
variable C3neg equal 81.1003992772799
variable C4neg equal ${d4}
variable C4neg equal -0.15031191922569
variable C5neg equal ${d5}
variable C5neg equal 0.181970554244755
variable C6neg equal ${d6}
variable C6neg equal -0.189042867116655

# Reset box and simulation parameters

clear
box tilt large
read_restart restart.equil
  triclinic box = (0 0 0) to (16.293 16.293 16.293) with tilt (0 0 0)
  1 by 1 by 1 MPI processor grid
  216 atoms
include potential.mod
# NOTE: This script can be modified for different pair styles
# See in.elastic for more info.

reset_timestep 0

# Choose potential
pair_style	sw
pair_coeff * * Si.sw Si
Reading potential file Si.sw with DATE: 2007-06-11

# Setup neighbor style
neighbor 1.0 nsq
neigh_modify once no every 1 delay 0 check yes

# Setup output

fix avp all ave/time  ${nevery} ${nrepeat} ${nfreq} c_thermo_press mode vector
fix avp all ave/time  10 ${nrepeat} ${nfreq} c_thermo_press mode vector
fix avp all ave/time  10 10 ${nfreq} c_thermo_press mode vector
fix avp all ave/time  10 10 100 c_thermo_press mode vector
thermo		${nthermo}
thermo		100
thermo_style custom step temp pe press f_avp[1] f_avp[2] f_avp[3] f_avp[4] f_avp[5] f_avp[6]
thermo_modify norm no

# Setup MD

timestep ${timestep}
timestep 0.001
fix 4 all nve
if "${thermostat} == 1" then    "fix 5 all langevin ${temp} ${temp} ${tdamp} ${seed}"
fix 5 all langevin ${temp} ${temp} ${tdamp} ${seed}
fix 5 all langevin 300 ${temp} ${tdamp} ${seed}
fix 5 all langevin 300 300 ${tdamp} ${seed}
fix 5 all langevin 300 300 0.01 ${seed}
fix 5 all langevin 300 300 0.01 123457



# Positive deformation

variable delta equal ${up}*${len0}
variable delta equal 0.02*${len0}
variable delta equal 0.02*16.293
variable deltaxy equal ${up}*xy
variable deltaxy equal 0.02*xy
variable deltaxz equal ${up}*xz
variable deltaxz equal 0.02*xz
variable deltayz equal ${up}*yz
variable deltayz equal 0.02*yz
if "${dir} == 1" then    "change_box all x delta 0 ${delta} xy delta ${deltaxy} xz delta ${deltaxz} remap units box"
change_box all x delta 0 ${delta} xy delta ${deltaxy} xz delta ${deltaxz} remap units box
change_box all x delta 0 0.32586 xy delta ${deltaxy} xz delta ${deltaxz} remap units box
change_box all x delta 0 0.32586 xy delta 0 xz delta ${deltaxz} remap units box
change_box all x delta 0 0.32586 xy delta 0 xz delta 0 remap units box
  triclinic box = (0 0 0) to (16.6189 16.293 16.293) with tilt (0 0 0)
  triclinic box = (0 0 0) to (16.6189 16.293 16.293) with tilt (0 0 0)
  triclinic box = (0 0 0) to (16.6189 16.293 16.293) with tilt (0 0 0)
if "${dir} == 2" then    "change_box all y delta 0 ${delta} yz delta ${deltayz} remap units box"
if "${dir} == 3" then    "change_box all z delta 0 ${delta} remap units box"
if "${dir} == 4" then    "change_box all yz delta ${delta} remap units box"
if "${dir} == 5" then    "change_box all xz delta ${delta} remap units box"
if "${dir} == 6" then    "change_box all xy delta ${delta} remap units box"

# Run MD

run ${nequil}
run 1000
Neighbor list info ...
  1 neighbor list requests
  update every 1 steps, delay 0 steps, check yes
  max neighbors/atom: 2000, page size: 100000
  master list distance cutoff = 4.77118
  ghost atom cutoff = 4.77118
Memory usage per processor = 1.81279 Mbytes
Step Temp PotEng Press avp[1] avp[2] avp[3] avp[4] avp[5] avp[6] 
       0    311.03943   -926.68514   -15859.701            0            0            0            0            0            0 
     100    284.51198   -927.60096   -16191.299   -25902.614   -11111.581   -11438.328   -215.66548    1390.3403    686.10669 
     200    282.14757   -926.22299   -15842.366    -25873.98   -11431.827   -11049.675   -645.43678    177.55069    451.48782 
     300    310.34156   -926.23143   -15921.691   -25893.987   -10993.031   -11288.855   -571.13739   -133.02598   -556.71907 
     400    274.29102   -927.97068   -16363.992   -25720.412   -10935.425   -11094.451    360.25694   -203.90522    196.54186 
     500    289.98252   -927.84158   -16189.575   -25546.161   -11276.677   -11159.514   -14.894534   -15.993535    253.74531 
     600    309.81364   -927.65317   -15934.493   -25684.189   -11085.282   -11123.971    714.13875    482.40898    66.103475 
     700    302.88453   -927.62034   -16120.206   -25664.188   -11064.533   -11153.414   -1098.4995   -273.50466   -655.00214 
     800    316.00318   -927.03552   -16049.259   -25872.004   -11207.001   -11506.764   -696.43227   -548.55989   -490.53726 
     900    317.28601   -927.28557   -15771.404   -25696.184   -10853.148   -11262.072   -909.94874    1803.6676    212.92816 
    1000    283.19341   -927.57867   -16356.233   -25879.114    -11165.04   -11110.878   -1587.0923    -1072.994    1305.7049 
Loop time of 0.472358 on 1 procs for 1000 steps with 216 atoms

Performance: 182.912 ns/day, 0.131 hours/ns, 2117.038 timesteps/s
100.0% CPU use with 1 MPI tasks x no OpenMP threads

MPI task timing breakdown:
Section |  min time  |  avg time  |  max time  |%varavg| %total
---------------------------------------------------------------
Pair    | 0.45871    | 0.45871    | 0.45871    |   0.0 | 97.11
Neigh   | 0          | 0          | 0          |   0.0 |  0.00
Comm    | 0.0023291  | 0.0023291  | 0.0023291  |   0.0 |  0.49
Output  | 0.0001092  | 0.0001092  | 0.0001092  |   0.0 |  0.02
Modify  | 0.010152   | 0.010152   | 0.010152   |   0.0 |  2.15
Other   |            | 0.00106    |            |       |  0.22

Nlocal:    216 ave 216 max 216 min
Histogram: 1 0 0 0 0 0 0 0 0 0
Nghost:    648 ave 648 max 648 min
Histogram: 1 0 0 0 0 0 0 0 0 0
Neighs:    0 ave 0 max 0 min
Histogram: 1 0 0 0 0 0 0 0 0 0
FullNghs:  6030 ave 6030 max 6030 min
Histogram: 1 0 0 0 0 0 0 0 0 0

Total # of neighbors = 6030
Ave neighs/atom = 27.9167
Neighbor list builds = 0
Dangerous builds = 0
include potential.mod
# NOTE: This script can be modified for different pair styles
# See in.elastic for more info.

reset_timestep 0

# Choose potential
pair_style	sw
pair_coeff * * Si.sw Si
Reading potential file Si.sw with DATE: 2007-06-11

# Setup neighbor style
neighbor 1.0 nsq
neigh_modify once no every 1 delay 0 check yes

# Setup output

fix avp all ave/time  ${nevery} ${nrepeat} ${nfreq} c_thermo_press mode vector
fix avp all ave/time  10 ${nrepeat} ${nfreq} c_thermo_press mode vector
fix avp all ave/time  10 10 ${nfreq} c_thermo_press mode vector
fix avp all ave/time  10 10 100 c_thermo_press mode vector
thermo		${nthermo}
thermo		100
thermo_style custom step temp pe press f_avp[1] f_avp[2] f_avp[3] f_avp[4] f_avp[5] f_avp[6]
WARNING: New thermo_style command, previous thermo_modify settings will be lost (../output.cpp:680)
thermo_modify norm no

# Setup MD

timestep ${timestep}
timestep 0.001
fix 4 all nve
if "${thermostat} == 1" then    "fix 5 all langevin ${temp} ${temp} ${tdamp} ${seed}"
fix 5 all langevin ${temp} ${temp} ${tdamp} ${seed}
fix 5 all langevin 300 ${temp} ${tdamp} ${seed}
fix 5 all langevin 300 300 ${tdamp} ${seed}
fix 5 all langevin 300 300 0.01 ${seed}
fix 5 all langevin 300 300 0.01 123457


run ${nrun}
run 300
Memory usage per processor = 1.81279 Mbytes
Step Temp PotEng Press avp[1] avp[2] avp[3] avp[4] avp[5] avp[6] 
       0    283.19341   -927.57867   -16356.233            0            0            0            0            0            0 
     100    284.57253   -927.80011   -16128.318   -26016.938   -11147.897   -11383.983   -287.28747    1246.7284    526.05686 
     200    282.80036   -926.54331   -15779.083   -25837.208   -11338.083   -11012.771   -537.30903    126.02351    348.31365 
     300    311.21826   -926.60156   -15814.885   -25793.497   -10925.786   -11205.383   -515.49737   -146.21812   -574.72793 
Loop time of 0.139254 on 1 procs for 300 steps with 216 atoms

Performance: 186.135 ns/day, 0.129 hours/ns, 2154.339 timesteps/s
100.0% CPU use with 1 MPI tasks x no OpenMP threads

MPI task timing breakdown:
Section |  min time  |  avg time  |  max time  |%varavg| %total
---------------------------------------------------------------
Pair    | 0.13517    | 0.13517    | 0.13517    |   0.0 | 97.07
Neigh   | 0          | 0          | 0          |   0.0 |  0.00
Comm    | 0.00068736 | 0.00068736 | 0.00068736 |   0.0 |  0.49
Output  | 2.4796e-05 | 2.4796e-05 | 2.4796e-05 |   0.0 |  0.02
Modify  | 0.003056   | 0.003056   | 0.003056   |   0.0 |  2.19
Other   |            | 0.0003107  |            |       |  0.22

Nlocal:    216 ave 216 max 216 min
Histogram: 1 0 0 0 0 0 0 0 0 0
Nghost:    648 ave 648 max 648 min
Histogram: 1 0 0 0 0 0 0 0 0 0
Neighs:    0 ave 0 max 0 min
Histogram: 1 0 0 0 0 0 0 0 0 0
FullNghs:  6032 ave 6032 max 6032 min
Histogram: 1 0 0 0 0 0 0 0 0 0

Total # of neighbors = 6032
Ave neighs/atom = 27.9259
Neighbor list builds = 0
Dangerous builds = 0

# Obtain new stress tensor

variable tmp equal pe
variable e1 equal ${tmp}
variable e1 equal -926.601564155302
variable tmp equal press
variable p1 equal ${tmp}
variable p1 equal -15814.8847420532
variable tmp equal pxx
variable pxx1 equal ${tmp}
variable pxx1 equal -26017.4737809015
variable tmp equal pyy
variable pyy1 equal ${tmp}
variable pyy1 equal -10817.7582899218
variable tmp equal pzz
variable pzz1 equal ${tmp}
variable pzz1 equal -10609.4221553362
variable tmp equal pxy
variable pxy1 equal ${tmp}
variable pxy1 equal -3370.06492453015
variable tmp equal pxz
variable pxz1 equal ${tmp}
variable pxz1 equal 3417.59015600687
variable tmp equal pyz
variable pyz1 equal ${tmp}
variable pyz1 equal -256.443540368971

# Compute elastic constant from pressure tensor

variable C1pos equal ${d1}
variable C1pos equal 147.791803348516
variable C2pos equal ${d2}
variable C2pos equal 73.1912690843475
variable C3pos equal ${d3}
variable C3pos equal 70.7170337196877
variable C4pos equal ${d4}
variable C4pos equal -1.71802861483072
variable C5pos equal ${d5}
variable C5pos equal -17.677520876725
variable C6pos equal ${d6}
variable C6pos equal 14.1278596140052

# Combine positive and negative

variable C1${dir} equal 0.5*(${C1neg}+${C1pos})
variable C11 equal 0.5*(${C1neg}+${C1pos})
variable C11 equal 0.5*(153.104907313306+${C1pos})
variable C11 equal 0.5*(153.104907313306+147.791803348516)
variable C2${dir} equal 0.5*(${C2neg}+${C2pos})
variable C21 equal 0.5*(${C2neg}+${C2pos})
variable C21 equal 0.5*(81.1298980576771+${C2pos})
variable C21 equal 0.5*(81.1298980576771+73.1912690843475)
variable C3${dir} equal 0.5*(${C3neg}+${C3pos})
variable C31 equal 0.5*(${C3neg}+${C3pos})
variable C31 equal 0.5*(81.1003992772799+${C3pos})
variable C31 equal 0.5*(81.1003992772799+70.7170337196877)
variable C4${dir} equal 0.5*(${C4neg}+${C4pos})
variable C41 equal 0.5*(${C4neg}+${C4pos})
variable C41 equal 0.5*(-0.15031191922569+${C4pos})
variable C41 equal 0.5*(-0.15031191922569+-1.71802861483072)
variable C5${dir} equal 0.5*(${C5neg}+${C5pos})
variable C51 equal 0.5*(${C5neg}+${C5pos})
variable C51 equal 0.5*(0.181970554244755+${C5pos})
variable C51 equal 0.5*(0.181970554244755+-17.677520876725)
variable C6${dir} equal 0.5*(${C6neg}+${C6pos})
variable C61 equal 0.5*(${C6neg}+${C6pos})
variable C61 equal 0.5*(-0.189042867116655+${C6pos})
variable C61 equal 0.5*(-0.189042867116655+14.1278596140052)

# Delete dir to make sure it is not reused

variable dir delete

# uyy Perturbation

variable dir equal 2
include displace.mod
# NOTE: This script should not need to be
# modified. See in.elastic for more info.
#
# Find which reference length to use

if "${dir} == 1" then    "variable len0 equal ${lx0}"
if "${dir} == 2" then    "variable len0 equal ${ly0}"
variable len0 equal ${ly0}
variable len0 equal 16.293
if "${dir} == 3" then    "variable len0 equal ${lz0}"
if "${dir} == 4" then    "variable len0 equal ${lz0}"
if "${dir} == 5" then    "variable len0 equal ${lz0}"
if "${dir} == 6" then    "variable len0 equal ${ly0}"

# Reset box and simulation parameters

clear
box tilt large
read_restart restart.equil
  triclinic box = (0 0 0) to (16.293 16.293 16.293) with tilt (0 0 0)
  1 by 1 by 1 MPI processor grid
  216 atoms
include potential.mod
# NOTE: This script can be modified for different pair styles
# See in.elastic for more info.

reset_timestep 0

# Choose potential
pair_style	sw
pair_coeff * * Si.sw Si
Reading potential file Si.sw with DATE: 2007-06-11

# Setup neighbor style
neighbor 1.0 nsq
neigh_modify once no every 1 delay 0 check yes

# Setup output

fix avp all ave/time  ${nevery} ${nrepeat} ${nfreq} c_thermo_press mode vector
fix avp all ave/time  10 ${nrepeat} ${nfreq} c_thermo_press mode vector
fix avp all ave/time  10 10 ${nfreq} c_thermo_press mode vector
fix avp all ave/time  10 10 100 c_thermo_press mode vector
thermo		${nthermo}
thermo		100
thermo_style custom step temp pe press f_avp[1] f_avp[2] f_avp[3] f_avp[4] f_avp[5] f_avp[6]
thermo_modify norm no

# Setup MD

timestep ${timestep}
timestep 0.001
fix 4 all nve
if "${thermostat} == 1" then    "fix 5 all langevin ${temp} ${temp} ${tdamp} ${seed}"
fix 5 all langevin ${temp} ${temp} ${tdamp} ${seed}
fix 5 all langevin 300 ${temp} ${tdamp} ${seed}
fix 5 all langevin 300 300 ${tdamp} ${seed}
fix 5 all langevin 300 300 0.01 ${seed}
fix 5 all langevin 300 300 0.01 123457



# Negative deformation

variable delta equal -${up}*${len0}
variable delta equal -0.02*${len0}
variable delta equal -0.02*16.293
variable deltaxy equal -${up}*xy
variable deltaxy equal -0.02*xy
variable deltaxz equal -${up}*xz
variable deltaxz equal -0.02*xz
variable deltayz equal -${up}*yz
variable deltayz equal -0.02*yz
if "${dir} == 1" then    "change_box all x delta 0 ${delta} xy delta ${deltaxy} xz delta ${deltaxz} remap units box"
if "${dir} == 2" then    "change_box all y delta 0 ${delta} yz delta ${deltayz} remap units box"
change_box all y delta 0 ${delta} yz delta ${deltayz} remap units box
change_box all y delta 0 -0.32586 yz delta ${deltayz} remap units box
change_box all y delta 0 -0.32586 yz delta -0 remap units box
  triclinic box = (0 0 0) to (16.293 15.9671 16.293) with tilt (0 0 0)
  triclinic box = (0 0 0) to (16.293 15.9671 16.293) with tilt (0 0 0)
if "${dir} == 3" then    "change_box all z delta 0 ${delta} remap units box"
if "${dir} == 4" then    "change_box all yz delta ${delta} remap units box"
if "${dir} == 5" then    "change_box all xz delta ${delta} remap units box"
if "${dir} == 6" then    "change_box all xy delta ${delta} remap units box"

# Run MD

run ${nequil}
run 1000
Neighbor list info ...
  1 neighbor list requests
  update every 1 steps, delay 0 steps, check yes
  max neighbors/atom: 2000, page size: 100000
  master list distance cutoff = 4.77118
  ghost atom cutoff = 4.77118
Memory usage per processor = 1.81279 Mbytes
Step Temp PotEng Press avp[1] avp[2] avp[3] avp[4] avp[5] avp[6] 
       0    311.03943   -926.48866    24874.869            0            0            0            0            0            0 
     100    284.26173   -927.61013    24409.012      19686.8    34283.148    19490.466   -204.44258    1428.4745    761.09687 
     200    283.62781   -926.19275    24803.777    19700.919    33920.371    19919.081   -641.49522    184.87237    482.90764 
     300    309.65941   -926.20615     24675.62    19630.056    34361.517    19644.893   -647.80407    -69.85238   -576.92619 
     400    274.08372   -927.95531    24277.383    19851.848    34451.588    19858.562    388.06949    -212.1406    231.24949 
     500    289.37578   -927.80664    24453.621     20047.14    34095.826    19813.104   -13.109911   -22.361838    200.49035 
     600    309.06575   -927.62484    24733.112    19923.774    34334.539    19849.857    741.31866    485.71958    129.66781 
     700    302.28056   -927.56003    24542.176    19928.925    34351.689    19806.824   -1168.4391   -266.78422   -724.44324 
     800    315.45098    -927.0079    24537.052    19696.615    34160.973    19436.293   -737.58567   -541.98274    -507.8689 
     900    317.50721   -927.22852    24890.544    19855.989    34534.156    19701.475   -958.18812    1902.7014    279.16267 
    1000    283.57201   -927.58284    24274.562    19689.565    34212.622    19847.874   -1671.5128   -1149.9248    1385.6122 
Loop time of 0.760058 on 1 procs for 1000 steps with 216 atoms

Performance: 113.676 ns/day, 0.211 hours/ns, 1315.689 timesteps/s
100.0% CPU use with 1 MPI tasks x no OpenMP threads

MPI task timing breakdown:
Section |  min time  |  avg time  |  max time  |%varavg| %total
---------------------------------------------------------------
Pair    | 0.74642    | 0.74642    | 0.74642    |   0.0 | 98.21
Neigh   | 0          | 0          | 0          |   0.0 |  0.00
Comm    | 0.0022807  | 0.0022807  | 0.0022807  |   0.0 |  0.30
Output  | 9.2268e-05 | 9.2268e-05 | 9.2268e-05 |   0.0 |  0.01
Modify  | 0.010221   | 0.010221   | 0.010221   |   0.0 |  1.34
Other   |            | 0.001044   |            |       |  0.14

Nlocal:    216 ave 216 max 216 min
Histogram: 1 0 0 0 0 0 0 0 0 0
Nghost:    648 ave 648 max 648 min
Histogram: 1 0 0 0 0 0 0 0 0 0
Neighs:    0 ave 0 max 0 min
Histogram: 1 0 0 0 0 0 0 0 0 0
FullNghs:  6044 ave 6044 max 6044 min
Histogram: 1 0 0 0 0 0 0 0 0 0

Total # of neighbors = 6044
Ave neighs/atom = 27.9815
Neighbor list builds = 0
Dangerous builds = 0
include potential.mod
# NOTE: This script can be modified for different pair styles
# See in.elastic for more info.

reset_timestep 0

# Choose potential
pair_style	sw
pair_coeff * * Si.sw Si
Reading potential file Si.sw with DATE: 2007-06-11

# Setup neighbor style
neighbor 1.0 nsq
neigh_modify once no every 1 delay 0 check yes

# Setup output

fix avp all ave/time  ${nevery} ${nrepeat} ${nfreq} c_thermo_press mode vector
fix avp all ave/time  10 ${nrepeat} ${nfreq} c_thermo_press mode vector
fix avp all ave/time  10 10 ${nfreq} c_thermo_press mode vector
fix avp all ave/time  10 10 100 c_thermo_press mode vector
thermo		${nthermo}
thermo		100
thermo_style custom step temp pe press f_avp[1] f_avp[2] f_avp[3] f_avp[4] f_avp[5] f_avp[6]
WARNING: New thermo_style command, previous thermo_modify settings will be lost (../output.cpp:680)
thermo_modify norm no

# Setup MD

timestep ${timestep}
timestep 0.001
fix 4 all nve
if "${thermostat} == 1" then    "fix 5 all langevin ${temp} ${temp} ${tdamp} ${seed}"
fix 5 all langevin ${temp} ${temp} ${tdamp} ${seed}
fix 5 all langevin 300 ${temp} ${tdamp} ${seed}
fix 5 all langevin 300 300 ${tdamp} ${seed}
fix 5 all langevin 300 300 0.01 ${seed}
fix 5 all langevin 300 300 0.01 123457


run ${nrun}
run 300
Memory usage per processor = 1.81279 Mbytes
Step Temp PotEng Press avp[1] avp[2] avp[3] avp[4] avp[5] avp[6] 
       0    283.57201   -927.58284    24274.562            0            0            0            0            0            0 
     100    284.31035     -927.803    24472.962     19538.37    34233.237    19554.981   -247.35214    1290.5113    542.74173 
     200    284.28822   -926.50991    24879.026    19750.772    34036.014    19959.794   -511.14456    120.19918     370.9627 
     300    310.55098   -926.57118    24806.266    19756.156    34458.316    19732.589   -580.23221   -89.545864   -599.80208 
Loop time of 0.227188 on 1 procs for 300 steps with 216 atoms

Performance: 114.090 ns/day, 0.210 hours/ns, 1320.492 timesteps/s
100.0% CPU use with 1 MPI tasks x no OpenMP threads

MPI task timing breakdown:
Section |  min time  |  avg time  |  max time  |%varavg| %total
---------------------------------------------------------------
Pair    | 0.22313    | 0.22313    | 0.22313    |   0.0 | 98.22
Neigh   | 0          | 0          | 0          |   0.0 |  0.00
Comm    | 0.00068188 | 0.00068188 | 0.00068188 |   0.0 |  0.30
Output  | 2.718e-05  | 2.718e-05  | 2.718e-05  |   0.0 |  0.01
Modify  | 0.0030394  | 0.0030394  | 0.0030394  |   0.0 |  1.34
Other   |            | 0.0003052  |            |       |  0.13

Nlocal:    216 ave 216 max 216 min
Histogram: 1 0 0 0 0 0 0 0 0 0
Nghost:    648 ave 648 max 648 min
Histogram: 1 0 0 0 0 0 0 0 0 0
Neighs:    0 ave 0 max 0 min
Histogram: 1 0 0 0 0 0 0 0 0 0
FullNghs:  6044 ave 6044 max 6044 min
Histogram: 1 0 0 0 0 0 0 0 0 0

Total # of neighbors = 6044
Ave neighs/atom = 27.9815
Neighbor list builds = 0
Dangerous builds = 0

# Obtain new stress tensor

variable pxx1 equal f_avp[1]
variable pyy1 equal f_avp[2]
variable pzz1 equal f_avp[3]
variable pxy1 equal f_avp[4]
variable pxz1 equal f_avp[5]
variable pyz1 equal f_avp[6]

# Compute elastic constant from pressure tensor

variable C1neg equal ${d1}
variable C1neg equal 81.0763456557976
variable C2neg equal ${d2}
variable C2neg equal 153.189104672892
variable C3neg equal ${d3}
variable C3neg equal 80.9930197326454
variable C4neg equal ${d4}
variable C4neg equal 0.00123591895111986
variable C5neg equal ${d5}
variable C5neg equal 0.141840778367562
variable C6neg equal ${d6}
variable C6neg equal -0.178696029378745

# Reset box and simulation parameters

clear
box tilt large
read_restart restart.equil
  triclinic box = (0 0 0) to (16.293 16.293 16.293) with tilt (0 0 0)
  1 by 1 by 1 MPI processor grid
  216 atoms
include potential.mod
# NOTE: This script can be modified for different pair styles
# See in.elastic for more info.

reset_timestep 0

# Choose potential
pair_style	sw
pair_coeff * * Si.sw Si
Reading potential file Si.sw with DATE: 2007-06-11

# Setup neighbor style
neighbor 1.0 nsq
neigh_modify once no every 1 delay 0 check yes

# Setup output

fix avp all ave/time  ${nevery} ${nrepeat} ${nfreq} c_thermo_press mode vector
fix avp all ave/time  10 ${nrepeat} ${nfreq} c_thermo_press mode vector
fix avp all ave/time  10 10 ${nfreq} c_thermo_press mode vector
fix avp all ave/time  10 10 100 c_thermo_press mode vector
thermo		${nthermo}
thermo		100
thermo_style custom step temp pe press f_avp[1] f_avp[2] f_avp[3] f_avp[4] f_avp[5] f_avp[6]
thermo_modify norm no

# Setup MD

timestep ${timestep}
timestep 0.001
fix 4 all nve
if "${thermostat} == 1" then    "fix 5 all langevin ${temp} ${temp} ${tdamp} ${seed}"
fix 5 all langevin ${temp} ${temp} ${tdamp} ${seed}
fix 5 all langevin 300 ${temp} ${tdamp} ${seed}
fix 5 all langevin 300 300 ${tdamp} ${seed}
fix 5 all langevin 300 300 0.01 ${seed}
fix 5 all langevin 300 300 0.01 123457



# Positive deformation

variable delta equal ${up}*${len0}
variable delta equal 0.02*${len0}
variable delta equal 0.02*16.293
variable deltaxy equal ${up}*xy
variable deltaxy equal 0.02*xy
variable deltaxz equal ${up}*xz
variable deltaxz equal 0.02*xz
variable deltayz equal ${up}*yz
variable deltayz equal 0.02*yz
if "${dir} == 1" then    "change_box all x delta 0 ${delta} xy delta ${deltaxy} xz delta ${deltaxz} remap units box"
if "${dir} == 2" then    "change_box all y delta 0 ${delta} yz delta ${deltayz} remap units box"
change_box all y delta 0 ${delta} yz delta ${deltayz} remap units box
change_box all y delta 0 0.32586 yz delta ${deltayz} remap units box
change_box all y delta 0 0.32586 yz delta 0 remap units box
  triclinic box = (0 0 0) to (16.293 16.6189 16.293) with tilt (0 0 0)
  triclinic box = (0 0 0) to (16.293 16.6189 16.293) with tilt (0 0 0)
if "${dir} == 3" then    "change_box all z delta 0 ${delta} remap units box"
if "${dir} == 4" then    "change_box all yz delta ${delta} remap units box"
if "${dir} == 5" then    "change_box all xz delta ${delta} remap units box"
if "${dir} == 6" then    "change_box all xy delta ${delta} remap units box"

# Run MD

run ${nequil}
run 1000
Neighbor list info ...
  1 neighbor list requests
  update every 1 steps, delay 0 steps, check yes
  max neighbors/atom: 2000, page size: 100000
  master list distance cutoff = 4.77118
  ghost atom cutoff = 4.77118
Memory usage per processor = 1.81279 Mbytes
Step Temp PotEng Press avp[1] avp[2] avp[3] avp[4] avp[5] avp[6] 
       0    311.03943   -926.71698   -15853.646            0            0            0            0            0            0 
     100    284.34499   -927.60301   -16190.521   -11276.958    -25741.11   -11417.585   -218.49668    1376.1811    683.52728 
     200    282.32226   -926.23156   -15834.782   -11266.804   -26028.186   -11043.261   -639.14002     171.4329    460.52511 
     300    310.54121    -926.2404   -15901.432   -11324.631   -25571.943   -11271.858    -572.3124   -127.30198   -586.40223 
     400    274.32592   -927.97014   -16360.413   -11118.119   -25540.155   -11092.966    356.78053   -201.37027    177.57482 
     500    289.84125   -927.84168   -16190.499   -10915.317   -25888.802   -11164.121   -22.424534   -10.373531    262.27186 
     600    309.76829   -927.65873   -15937.787   -11035.601    -25731.53   -11123.823    715.31531    481.84263    64.380637 
     700    302.78981   -927.61969   -16122.634   -11050.902   -25690.531   -11148.128   -1097.3373   -257.85071   -660.78099 
     800    316.28387    -927.0438    -16051.18   -11269.287   -25811.649    -11502.24   -700.48855   -525.69659   -523.00233 
     900    317.29287   -927.28088   -15785.686   -11098.219   -25470.253   -11251.221   -920.70265    1773.8749    218.51454 
    1000    283.13787   -927.57422   -16358.047   -11279.074   -25767.564   -11119.573    -1586.373   -1064.7775    1334.2071 
Loop time of 0.473597 on 1 procs for 1000 steps with 216 atoms

Performance: 182.434 ns/day, 0.132 hours/ns, 2111.500 timesteps/s
100.0% CPU use with 1 MPI tasks x no OpenMP threads

MPI task timing breakdown:
Section |  min time  |  avg time  |  max time  |%varavg| %total
---------------------------------------------------------------
Pair    | 0.46004    | 0.46004    | 0.46004    |   0.0 | 97.14
Neigh   | 0          | 0          | 0          |   0.0 |  0.00
Comm    | 0.0022235  | 0.0022235  | 0.0022235  |   0.0 |  0.47
Output  | 0.00011253 | 0.00011253 | 0.00011253 |   0.0 |  0.02
Modify  | 0.010173   | 0.010173   | 0.010173   |   0.0 |  2.15
Other   |            | 0.001051   |            |       |  0.22

Nlocal:    216 ave 216 max 216 min
Histogram: 1 0 0 0 0 0 0 0 0 0
Nghost:    648 ave 648 max 648 min
Histogram: 1 0 0 0 0 0 0 0 0 0
Neighs:    0 ave 0 max 0 min
Histogram: 1 0 0 0 0 0 0 0 0 0
FullNghs:  6034 ave 6034 max 6034 min
Histogram: 1 0 0 0 0 0 0 0 0 0

Total # of neighbors = 6034
Ave neighs/atom = 27.9352
Neighbor list builds = 0
Dangerous builds = 0
include potential.mod
# NOTE: This script can be modified for different pair styles
# See in.elastic for more info.

reset_timestep 0

# Choose potential
pair_style	sw
pair_coeff * * Si.sw Si
Reading potential file Si.sw with DATE: 2007-06-11

# Setup neighbor style
neighbor 1.0 nsq
neigh_modify once no every 1 delay 0 check yes

# Setup output

fix avp all ave/time  ${nevery} ${nrepeat} ${nfreq} c_thermo_press mode vector
fix avp all ave/time  10 ${nrepeat} ${nfreq} c_thermo_press mode vector
fix avp all ave/time  10 10 ${nfreq} c_thermo_press mode vector
fix avp all ave/time  10 10 100 c_thermo_press mode vector
thermo		${nthermo}
thermo		100
thermo_style custom step temp pe press f_avp[1] f_avp[2] f_avp[3] f_avp[4] f_avp[5] f_avp[6]
WARNING: New thermo_style command, previous thermo_modify settings will be lost (../output.cpp:680)
thermo_modify norm no

# Setup MD

timestep ${timestep}
timestep 0.001
fix 4 all nve
if "${thermostat} == 1" then    "fix 5 all langevin ${temp} ${temp} ${tdamp} ${seed}"
fix 5 all langevin ${temp} ${temp} ${tdamp} ${seed}
fix 5 all langevin 300 ${temp} ${tdamp} ${seed}
fix 5 all langevin 300 300 ${tdamp} ${seed}
fix 5 all langevin 300 300 0.01 ${seed}
fix 5 all langevin 300 300 0.01 123457


run ${nrun}
run 300
Memory usage per processor = 1.81279 Mbytes
Step Temp PotEng Press avp[1] avp[2] avp[3] avp[4] avp[5] avp[6] 
       0    283.13787   -927.57422   -16358.047            0            0            0            0            0            0 
     100    284.58179   -927.79951   -16128.639   -11401.987   -25770.233   -11374.669   -294.63343    1234.8997    529.89383 
     200    282.94966   -926.54959   -15772.958   -11217.378   -25952.471   -11007.921   -535.74123    121.72776    361.12671 
     300    311.40603   -926.60955    -15798.48   -11194.833   -25533.788   -11189.774   -516.99535   -147.02752   -597.74029 
Loop time of 0.140975 on 1 procs for 300 steps with 216 atoms

Performance: 183.862 ns/day, 0.131 hours/ns, 2128.037 timesteps/s
100.0% CPU use with 1 MPI tasks x no OpenMP threads

MPI task timing breakdown:
Section |  min time  |  avg time  |  max time  |%varavg| %total
---------------------------------------------------------------
Pair    | 0.13687    | 0.13687    | 0.13687    |   0.0 | 97.09
Neigh   | 0          | 0          | 0          |   0.0 |  0.00
Comm    | 0.00069022 | 0.00069022 | 0.00069022 |   0.0 |  0.49
Output  | 3.2902e-05 | 3.2902e-05 | 3.2902e-05 |   0.0 |  0.02
Modify  | 0.0030541  | 0.0030541  | 0.0030541  |   0.0 |  2.17
Other   |            | 0.0003285  |            |       |  0.23

Nlocal:    216 ave 216 max 216 min
Histogram: 1 0 0 0 0 0 0 0 0 0
Nghost:    648 ave 648 max 648 min
Histogram: 1 0 0 0 0 0 0 0 0 0
Neighs:    0 ave 0 max 0 min
Histogram: 1 0 0 0 0 0 0 0 0 0
FullNghs:  6032 ave 6032 max 6032 min
Histogram: 1 0 0 0 0 0 0 0 0 0

Total # of neighbors = 6032
Ave neighs/atom = 27.9259
Neighbor list builds = 0
Dangerous builds = 0

# Obtain new stress tensor

variable tmp equal pe
variable e1 equal ${tmp}
variable e1 equal -926.609552908628
variable tmp equal press
variable p1 equal ${tmp}
variable p1 equal -15798.4799866279
variable tmp equal pxx
variable pxx1 equal ${tmp}
variable pxx1 equal -11458.0196100511
variable tmp equal pyy
variable pyy1 equal ${tmp}
variable pyy1 equal -25374.6411131092
variable tmp equal pzz
variable pzz1 equal ${tmp}
variable pzz1 equal -10562.7792367235
variable tmp equal pxy
variable pxy1 equal ${tmp}
variable pxy1 equal -3369.29989257718
variable tmp equal pxz
variable pxz1 equal ${tmp}
variable pxz1 equal 3347.50165406324
variable tmp equal pyz
variable pyz1 equal ${tmp}
variable pyz1 equal -298.283468034999

# Compute elastic constant from pressure tensor

variable C1pos equal ${d1}
variable C1pos equal 74.9945324942644
variable C2pos equal ${d2}
variable C2pos equal 145.975683200284
variable C3pos equal ${d3}
variable C3pos equal 70.4838191266242
variable C4pos equal ${d4}
variable C4pos equal -1.50882897650058
variable C5pos equal ${d5}
variable C5pos equal -17.3270783670068
variable C6pos equal ${d6}
variable C6pos equal 14.1240344542404

# Combine positive and negative

variable C1${dir} equal 0.5*(${C1neg}+${C1pos})
variable C12 equal 0.5*(${C1neg}+${C1pos})
variable C12 equal 0.5*(81.0763456557976+${C1pos})
variable C12 equal 0.5*(81.0763456557976+74.9945324942644)
variable C2${dir} equal 0.5*(${C2neg}+${C2pos})
variable C22 equal 0.5*(${C2neg}+${C2pos})
variable C22 equal 0.5*(153.189104672892+${C2pos})
variable C22 equal 0.5*(153.189104672892+145.975683200284)
variable C3${dir} equal 0.5*(${C3neg}+${C3pos})
variable C32 equal 0.5*(${C3neg}+${C3pos})
variable C32 equal 0.5*(80.9930197326454+${C3pos})
variable C32 equal 0.5*(80.9930197326454+70.4838191266242)
variable C4${dir} equal 0.5*(${C4neg}+${C4pos})
variable C42 equal 0.5*(${C4neg}+${C4pos})
variable C42 equal 0.5*(0.00123591895111986+${C4pos})
variable C42 equal 0.5*(0.00123591895111986+-1.50882897650058)
variable C5${dir} equal 0.5*(${C5neg}+${C5pos})
variable C52 equal 0.5*(${C5neg}+${C5pos})
variable C52 equal 0.5*(0.141840778367562+${C5pos})
variable C52 equal 0.5*(0.141840778367562+-17.3270783670068)
variable C6${dir} equal 0.5*(${C6neg}+${C6pos})
variable C62 equal 0.5*(${C6neg}+${C6pos})
variable C62 equal 0.5*(-0.178696029378745+${C6pos})
variable C62 equal 0.5*(-0.178696029378745+14.1240344542404)

# Delete dir to make sure it is not reused

variable dir delete

# uzz Perturbation

variable dir equal 3
include displace.mod
# NOTE: This script should not need to be
# modified. See in.elastic for more info.
#
# Find which reference length to use

if "${dir} == 1" then    "variable len0 equal ${lx0}"
if "${dir} == 2" then    "variable len0 equal ${ly0}"
if "${dir} == 3" then    "variable len0 equal ${lz0}"
variable len0 equal ${lz0}
variable len0 equal 16.293
if "${dir} == 4" then    "variable len0 equal ${lz0}"
if "${dir} == 5" then    "variable len0 equal ${lz0}"
if "${dir} == 6" then    "variable len0 equal ${ly0}"

# Reset box and simulation parameters

clear
box tilt large
read_restart restart.equil
  triclinic box = (0 0 0) to (16.293 16.293 16.293) with tilt (0 0 0)
  1 by 1 by 1 MPI processor grid
  216 atoms
include potential.mod
# NOTE: This script can be modified for different pair styles
# See in.elastic for more info.

reset_timestep 0

# Choose potential
pair_style	sw
pair_coeff * * Si.sw Si
Reading potential file Si.sw with DATE: 2007-06-11

# Setup neighbor style
neighbor 1.0 nsq
neigh_modify once no every 1 delay 0 check yes

# Setup output

fix avp all ave/time  ${nevery} ${nrepeat} ${nfreq} c_thermo_press mode vector
fix avp all ave/time  10 ${nrepeat} ${nfreq} c_thermo_press mode vector
fix avp all ave/time  10 10 ${nfreq} c_thermo_press mode vector
fix avp all ave/time  10 10 100 c_thermo_press mode vector
thermo		${nthermo}
thermo		100
thermo_style custom step temp pe press f_avp[1] f_avp[2] f_avp[3] f_avp[4] f_avp[5] f_avp[6]
thermo_modify norm no

# Setup MD

timestep ${timestep}
timestep 0.001
fix 4 all nve
if "${thermostat} == 1" then    "fix 5 all langevin ${temp} ${temp} ${tdamp} ${seed}"
fix 5 all langevin ${temp} ${temp} ${tdamp} ${seed}
fix 5 all langevin 300 ${temp} ${tdamp} ${seed}
fix 5 all langevin 300 300 ${tdamp} ${seed}
fix 5 all langevin 300 300 0.01 ${seed}
fix 5 all langevin 300 300 0.01 123457



# Negative deformation

variable delta equal -${up}*${len0}
variable delta equal -0.02*${len0}
variable delta equal -0.02*16.293
variable deltaxy equal -${up}*xy
variable deltaxy equal -0.02*xy
variable deltaxz equal -${up}*xz
variable deltaxz equal -0.02*xz
variable deltayz equal -${up}*yz
variable deltayz equal -0.02*yz
if "${dir} == 1" then    "change_box all x delta 0 ${delta} xy delta ${deltaxy} xz delta ${deltaxz} remap units box"
if "${dir} == 2" then    "change_box all y delta 0 ${delta} yz delta ${deltayz} remap units box"
if "${dir} == 3" then    "change_box all z delta 0 ${delta} remap units box"
change_box all z delta 0 ${delta} remap units box
change_box all z delta 0 -0.32586 remap units box
  triclinic box = (0 0 0) to (16.293 16.293 15.9671) with tilt (0 0 0)
if "${dir} == 4" then    "change_box all yz delta ${delta} remap units box"
if "${dir} == 5" then    "change_box all xz delta ${delta} remap units box"
if "${dir} == 6" then    "change_box all xy delta ${delta} remap units box"

# Run MD

run ${nequil}
run 1000
Neighbor list info ...
  1 neighbor list requests
  update every 1 steps, delay 0 steps, check yes
  max neighbors/atom: 2000, page size: 100000
  master list distance cutoff = 4.77118
  ghost atom cutoff = 4.77118
Memory usage per processor = 1.81279 Mbytes
Step Temp PotEng Press avp[1] avp[2] avp[3] avp[4] avp[5] avp[6] 
       0    311.03943   -926.49479    24864.494            0            0            0            0            0            0 
     100    284.23168   -927.61441    24428.309    19700.681    19822.362    33946.494   -215.91672    1401.4514    762.73408 
     200    283.62127   -926.20165    24809.095    19708.742    19511.755    34360.268   -674.17749    172.71074    483.89104 
     300    310.00468   -926.20531    24655.077    19623.084    19963.101    34022.516   -647.16904   -55.302771   -588.31635 
     400    274.08772   -927.95519    24281.005    19839.761    20029.215    34256.046    403.33272   -201.31034    226.06934 
     500    289.34816   -927.81182    24446.306    20050.092    19680.308    34237.169   -26.868541   -4.7811587    198.59664 
     600    309.14093   -927.63205    24726.439    19931.029    19880.152    34301.356    760.84714    496.95081    120.80621 
     700    302.18571   -927.55526     24527.54    19924.065      19901.4    34238.516   -1177.0929   -246.09969   -717.95427 
     800    315.55864   -927.00001    24561.368    19685.563    19740.434    33820.207   -720.56535   -521.76708   -507.17286 
     900    317.56635   -927.22628    24881.604    19867.237    20111.581    34118.511   -949.15643    1865.6038    278.13488 
    1000    283.64364   -927.57602    24267.822    19671.131    19799.051    34255.785   -1709.0558   -1133.6265    1386.9146 
Loop time of 0.758527 on 1 procs for 1000 steps with 216 atoms

Performance: 113.905 ns/day, 0.211 hours/ns, 1318.345 timesteps/s
100.0% CPU use with 1 MPI tasks x no OpenMP threads

MPI task timing breakdown:
Section |  min time  |  avg time  |  max time  |%varavg| %total
---------------------------------------------------------------
Pair    | 0.74488    | 0.74488    | 0.74488    |   0.0 | 98.20
Neigh   | 0          | 0          | 0          |   0.0 |  0.00
Comm    | 0.002239   | 0.002239   | 0.002239   |   0.0 |  0.30
Output  | 8.6308e-05 | 8.6308e-05 | 8.6308e-05 |   0.0 |  0.01
Modify  | 0.01023    | 0.01023    | 0.01023    |   0.0 |  1.35
Other   |            | 0.001089   |            |       |  0.14

Nlocal:    216 ave 216 max 216 min
Histogram: 1 0 0 0 0 0 0 0 0 0
Nghost:    648 ave 648 max 648 min
Histogram: 1 0 0 0 0 0 0 0 0 0
Neighs:    0 ave 0 max 0 min
Histogram: 1 0 0 0 0 0 0 0 0 0
FullNghs:  6046 ave 6046 max 6046 min
Histogram: 1 0 0 0 0 0 0 0 0 0

Total # of neighbors = 6046
Ave neighs/atom = 27.9907
Neighbor list builds = 0
Dangerous builds = 0
include potential.mod
# NOTE: This script can be modified for different pair styles
# See in.elastic for more info.

reset_timestep 0

# Choose potential
pair_style	sw
pair_coeff * * Si.sw Si
Reading potential file Si.sw with DATE: 2007-06-11

# Setup neighbor style
neighbor 1.0 nsq
neigh_modify once no every 1 delay 0 check yes

# Setup output

fix avp all ave/time  ${nevery} ${nrepeat} ${nfreq} c_thermo_press mode vector
fix avp all ave/time  10 ${nrepeat} ${nfreq} c_thermo_press mode vector
fix avp all ave/time  10 10 ${nfreq} c_thermo_press mode vector
fix avp all ave/time  10 10 100 c_thermo_press mode vector
thermo		${nthermo}
thermo		100
thermo_style custom step temp pe press f_avp[1] f_avp[2] f_avp[3] f_avp[4] f_avp[5] f_avp[6]
WARNING: New thermo_style command, previous thermo_modify settings will be lost (../output.cpp:680)
thermo_modify norm no

# Setup MD

timestep ${timestep}
timestep 0.001
fix 4 all nve
if "${thermostat} == 1" then    "fix 5 all langevin ${temp} ${temp} ${tdamp} ${seed}"
fix 5 all langevin ${temp} ${temp} ${tdamp} ${seed}
fix 5 all langevin 300 ${temp} ${tdamp} ${seed}
fix 5 all langevin 300 300 ${tdamp} ${seed}
fix 5 all langevin 300 300 0.01 ${seed}
fix 5 all langevin 300 300 0.01 123457


run ${nrun}
run 300
Memory usage per processor = 1.81279 Mbytes
Step Temp PotEng Press avp[1] avp[2] avp[3] avp[4] avp[5] avp[6] 
       0    283.64364   -927.57602    24267.822            0            0            0            0            0            0 
     100     284.3222   -927.80441    24492.434    19554.061    19796.363    34005.259   -259.43272    1279.2883    539.71674 
     200    284.26576    -926.5159     24893.79    19758.003    19611.271    34411.802   -554.31144    117.63429    374.82572 
     300    310.89619   -926.57258    24793.123    19757.561    20032.394    34141.083   -582.76296   -82.748071   -608.69446 
Loop time of 0.231247 on 1 procs for 300 steps with 216 atoms

Performance: 112.088 ns/day, 0.214 hours/ns, 1297.314 timesteps/s
100.0% CPU use with 1 MPI tasks x no OpenMP threads

MPI task timing breakdown:
Section |  min time  |  avg time  |  max time  |%varavg| %total
---------------------------------------------------------------
Pair    | 0.22712    | 0.22712    | 0.22712    |   0.0 | 98.21
Neigh   | 0          | 0          | 0          |   0.0 |  0.00
Comm    | 0.00067043 | 0.00067043 | 0.00067043 |   0.0 |  0.29
Output  | 3.171e-05  | 3.171e-05  | 3.171e-05  |   0.0 |  0.01
Modify  | 0.0031016  | 0.0031016  | 0.0031016  |   0.0 |  1.34
Other   |            | 0.0003281  |            |       |  0.14

Nlocal:    216 ave 216 max 216 min
Histogram: 1 0 0 0 0 0 0 0 0 0
Nghost:    648 ave 648 max 648 min
Histogram: 1 0 0 0 0 0 0 0 0 0
Neighs:    0 ave 0 max 0 min
Histogram: 1 0 0 0 0 0 0 0 0 0
FullNghs:  6044 ave 6044 max 6044 min
Histogram: 1 0 0 0 0 0 0 0 0 0

Total # of neighbors = 6044
Ave neighs/atom = 27.9815
Neighbor list builds = 0
Dangerous builds = 0

# Obtain new stress tensor

variable pxx1 equal f_avp[1]
variable pyy1 equal f_avp[2]
variable pzz1 equal f_avp[3]
variable pxy1 equal f_avp[4]
variable pxz1 equal f_avp[5]
variable pyz1 equal f_avp[6]

# Compute elastic constant from pressure tensor

variable C1neg equal ${d1}
variable C1neg equal 81.0833689706601
variable C2neg equal ${d2}
variable C2neg equal 81.0594903179561
variable C3neg equal ${d3}
variable C3neg equal 153.03549354105
variable C4neg equal ${d4}
variable C4neg equal -0.0432259701215497
variable C5neg equal ${d5}
variable C5neg equal 0.175829739431834
variable C6neg equal ${d6}
variable C6neg equal -0.191349784570555

# Reset box and simulation parameters

clear
box tilt large
read_restart restart.equil
  triclinic box = (0 0 0) to (16.293 16.293 16.293) with tilt (0 0 0)
  1 by 1 by 1 MPI processor grid
  216 atoms
include potential.mod
# NOTE: This script can be modified for different pair styles
# See in.elastic for more info.

reset_timestep 0

# Choose potential
pair_style	sw
pair_coeff * * Si.sw Si
Reading potential file Si.sw with DATE: 2007-06-11

# Setup neighbor style
neighbor 1.0 nsq
neigh_modify once no every 1 delay 0 check yes

# Setup output

fix avp all ave/time  ${nevery} ${nrepeat} ${nfreq} c_thermo_press mode vector
fix avp all ave/time  10 ${nrepeat} ${nfreq} c_thermo_press mode vector
fix avp all ave/time  10 10 ${nfreq} c_thermo_press mode vector
fix avp all ave/time  10 10 100 c_thermo_press mode vector
thermo		${nthermo}
thermo		100
thermo_style custom step temp pe press f_avp[1] f_avp[2] f_avp[3] f_avp[4] f_avp[5] f_avp[6]
thermo_modify norm no

# Setup MD

timestep ${timestep}
timestep 0.001
fix 4 all nve
if "${thermostat} == 1" then    "fix 5 all langevin ${temp} ${temp} ${tdamp} ${seed}"
fix 5 all langevin ${temp} ${temp} ${tdamp} ${seed}
fix 5 all langevin 300 ${temp} ${tdamp} ${seed}
fix 5 all langevin 300 300 ${tdamp} ${seed}
fix 5 all langevin 300 300 0.01 ${seed}
fix 5 all langevin 300 300 0.01 123457



# Positive deformation

variable delta equal ${up}*${len0}
variable delta equal 0.02*${len0}
variable delta equal 0.02*16.293
variable deltaxy equal ${up}*xy
variable deltaxy equal 0.02*xy
variable deltaxz equal ${up}*xz
variable deltaxz equal 0.02*xz
variable deltayz equal ${up}*yz
variable deltayz equal 0.02*yz
if "${dir} == 1" then    "change_box all x delta 0 ${delta} xy delta ${deltaxy} xz delta ${deltaxz} remap units box"
if "${dir} == 2" then    "change_box all y delta 0 ${delta} yz delta ${deltayz} remap units box"
if "${dir} == 3" then    "change_box all z delta 0 ${delta} remap units box"
change_box all z delta 0 ${delta} remap units box
change_box all z delta 0 0.32586 remap units box
  triclinic box = (0 0 0) to (16.293 16.293 16.6189) with tilt (0 0 0)
if "${dir} == 4" then    "change_box all yz delta ${delta} remap units box"
if "${dir} == 5" then    "change_box all xz delta ${delta} remap units box"
if "${dir} == 6" then    "change_box all xy delta ${delta} remap units box"

# Run MD

run ${nequil}
run 1000
Neighbor list info ...
  1 neighbor list requests
  update every 1 steps, delay 0 steps, check yes
  max neighbors/atom: 2000, page size: 100000
  master list distance cutoff = 4.77118
  ghost atom cutoff = 4.77118
Memory usage per processor = 1.81279 Mbytes
Step Temp PotEng Press avp[1] avp[2] avp[3] avp[4] avp[5] avp[6] 
       0    311.03943   -926.71158   -15851.431            0            0            0            0            0            0 
     100    284.35166   -927.60032   -16197.952   -11285.277   -11100.416   -26052.176   -212.19479    1395.0942    681.90835 
     200    282.33206    -926.2249    -15841.46   -11265.404   -11427.204    -25668.19   -617.08075    181.43338    459.43446 
     300    310.23363   -926.24208   -15896.211   -11321.525   -10979.383    -25847.98   -567.28797   -127.72274   -576.31386 
     400    274.32492    -927.9695   -16361.405   -11115.742   -10932.951   -25686.207    348.04044   -205.60888     183.1262 
     500    289.85416   -927.83447   -16186.723   -10916.084   -11282.109   -25774.524   -15.211225   -20.482922     263.8489 
     600    309.66682   -927.65025    -15931.25   -11040.771   -11092.865    -25758.04    698.30502    473.61944    72.561448 
     700     302.8641   -927.62381   -16114.308   -11052.015   -11060.864   -25766.934   -1088.7642   -274.77512   -666.77661 
     800    316.15876   -927.04644   -16060.614   -11271.818   -11202.903   -26085.063   -713.99363   -535.83118   -525.06758 
     900    317.22769   -927.28148    -15776.78   -11102.815   -10851.343   -25860.824    -922.8612    1802.0432    217.79609 
    1000    283.05096   -927.58052   -16359.774   -11270.327   -11164.812   -25723.364   -1557.1329   -1078.7494    1334.2472 
Loop time of 0.477544 on 1 procs for 1000 steps with 216 atoms

Performance: 180.926 ns/day, 0.133 hours/ns, 2094.048 timesteps/s
100.0% CPU use with 1 MPI tasks x no OpenMP threads

MPI task timing breakdown:
Section |  min time  |  avg time  |  max time  |%varavg| %total
---------------------------------------------------------------
Pair    | 0.46399    | 0.46399    | 0.46399    |   0.0 | 97.16
Neigh   | 0          | 0          | 0          |   0.0 |  0.00
Comm    | 0.0022538  | 0.0022538  | 0.0022538  |   0.0 |  0.47
Output  | 0.00010371 | 0.00010371 | 0.00010371 |   0.0 |  0.02
Modify  | 0.010142   | 0.010142   | 0.010142   |   0.0 |  2.12
Other   |            | 0.001059   |            |       |  0.22

Nlocal:    216 ave 216 max 216 min
Histogram: 1 0 0 0 0 0 0 0 0 0
Nghost:    648 ave 648 max 648 min
Histogram: 1 0 0 0 0 0 0 0 0 0
Neighs:    0 ave 0 max 0 min
Histogram: 1 0 0 0 0 0 0 0 0 0
FullNghs:  6032 ave 6032 max 6032 min
Histogram: 1 0 0 0 0 0 0 0 0 0

Total # of neighbors = 6032
Ave neighs/atom = 27.9259
Neighbor list builds = 0
Dangerous builds = 0
include potential.mod
# NOTE: This script can be modified for different pair styles
# See in.elastic for more info.

reset_timestep 0

# Choose potential
pair_style	sw
pair_coeff * * Si.sw Si
Reading potential file Si.sw with DATE: 2007-06-11

# Setup neighbor style
neighbor 1.0 nsq
neigh_modify once no every 1 delay 0 check yes

# Setup output

fix avp all ave/time  ${nevery} ${nrepeat} ${nfreq} c_thermo_press mode vector
fix avp all ave/time  10 ${nrepeat} ${nfreq} c_thermo_press mode vector
fix avp all ave/time  10 10 ${nfreq} c_thermo_press mode vector
fix avp all ave/time  10 10 100 c_thermo_press mode vector
thermo		${nthermo}
thermo		100
thermo_style custom step temp pe press f_avp[1] f_avp[2] f_avp[3] f_avp[4] f_avp[5] f_avp[6]
WARNING: New thermo_style command, previous thermo_modify settings will be lost (../output.cpp:680)
thermo_modify norm no

# Setup MD

timestep ${timestep}
timestep 0.001
fix 4 all nve
if "${thermostat} == 1" then    "fix 5 all langevin ${temp} ${temp} ${tdamp} ${seed}"
fix 5 all langevin ${temp} ${temp} ${tdamp} ${seed}
fix 5 all langevin 300 ${temp} ${tdamp} ${seed}
fix 5 all langevin 300 300 ${tdamp} ${seed}
fix 5 all langevin 300 300 0.01 ${seed}
fix 5 all langevin 300 300 0.01 123457


run ${nrun}
run 300
Memory usage per processor = 1.81279 Mbytes
Step Temp PotEng Press avp[1] avp[2] avp[3] avp[4] avp[5] avp[6] 
       0    283.05096   -927.58052   -16359.774            0            0            0            0            0            0 
     100    284.54033   -927.79913   -16135.931   -11407.239   -11144.703    -26006.93    -286.4554    1242.0382    532.02274 
     200    282.98347   -926.54556     -15779.9   -11214.487   -11335.349   -25642.679   -507.30068    123.82261    358.07155 
     300    311.08195    -926.6096   -15796.019   -11195.611   -10917.054   -25790.564   -510.14659   -144.86224   -589.18492 
Loop time of 0.139981 on 1 procs for 300 steps with 216 atoms

Performance: 185.168 ns/day, 0.130 hours/ns, 2143.148 timesteps/s
100.0% CPU use with 1 MPI tasks x no OpenMP threads

MPI task timing breakdown:
Section |  min time  |  avg time  |  max time  |%varavg| %total
---------------------------------------------------------------
Pair    | 0.13595    | 0.13595    | 0.13595    |   0.0 | 97.12
Neigh   | 0          | 0          | 0          |   0.0 |  0.00
Comm    | 0.00065422 | 0.00065422 | 0.00065422 |   0.0 |  0.47
Output  | 2.5034e-05 | 2.5034e-05 | 2.5034e-05 |   0.0 |  0.02
Modify  | 0.0030313  | 0.0030313  | 0.0030313  |   0.0 |  2.17
Other   |            | 0.0003183  |            |       |  0.23

Nlocal:    216 ave 216 max 216 min
Histogram: 1 0 0 0 0 0 0 0 0 0
Nghost:    648 ave 648 max 648 min
Histogram: 1 0 0 0 0 0 0 0 0 0
Neighs:    0 ave 0 max 0 min
Histogram: 1 0 0 0 0 0 0 0 0 0
FullNghs:  6034 ave 6034 max 6034 min
Histogram: 1 0 0 0 0 0 0 0 0 0

Total # of neighbors = 6034
Ave neighs/atom = 27.9352
Neighbor list builds = 0
Dangerous builds = 0

# Obtain new stress tensor

variable tmp equal pe
variable e1 equal ${tmp}
variable e1 equal -926.609597160976
variable tmp equal press
variable p1 equal ${tmp}
variable p1 equal -15796.0186813964
variable tmp equal pxx
variable pxx1 equal ${tmp}
variable pxx1 equal -11462.6090011196
variable tmp equal pyy
variable pyy1 equal ${tmp}
variable pyy1 equal -10775.3245502608
variable tmp equal pzz
variable pzz1 equal ${tmp}
variable pzz1 equal -25150.1224928087
variable tmp equal pxy
variable pxy1 equal ${tmp}
variable pxy1 equal -3329.85359340571
variable tmp equal pxz
variable pxz1 equal ${tmp}
variable pxz1 equal 3393.00232214628
variable tmp equal pyz
variable pyz1 equal ${tmp}
variable pyz1 equal -302.995849000297

# Compute elastic constant from pressure tensor

variable C1pos equal ${d1}
variable C1pos equal 75.017479449607
variable C2pos equal ${d2}
variable C2pos equal 72.9791003860425
variable C3pos equal ${d3}
variable C3pos equal 143.42053540705
variable C4pos equal ${d4}
variable C4pos equal -1.48526707167409
variable C5pos equal ${d5}
variable C5pos equal -17.554581707422
variable C6pos equal ${d6}
variable C6pos equal 13.926802958383

# Combine positive and negative

variable C1${dir} equal 0.5*(${C1neg}+${C1pos})
variable C13 equal 0.5*(${C1neg}+${C1pos})
variable C13 equal 0.5*(81.0833689706601+${C1pos})
variable C13 equal 0.5*(81.0833689706601+75.017479449607)
variable C2${dir} equal 0.5*(${C2neg}+${C2pos})
variable C23 equal 0.5*(${C2neg}+${C2pos})
variable C23 equal 0.5*(81.0594903179561+${C2pos})
variable C23 equal 0.5*(81.0594903179561+72.9791003860425)
variable C3${dir} equal 0.5*(${C3neg}+${C3pos})
variable C33 equal 0.5*(${C3neg}+${C3pos})
variable C33 equal 0.5*(153.03549354105+${C3pos})
variable C33 equal 0.5*(153.03549354105+143.42053540705)
variable C4${dir} equal 0.5*(${C4neg}+${C4pos})
variable C43 equal 0.5*(${C4neg}+${C4pos})
variable C43 equal 0.5*(-0.0432259701215497+${C4pos})
variable C43 equal 0.5*(-0.0432259701215497+-1.48526707167409)
variable C5${dir} equal 0.5*(${C5neg}+${C5pos})
variable C53 equal 0.5*(${C5neg}+${C5pos})
variable C53 equal 0.5*(0.175829739431834+${C5pos})
variable C53 equal 0.5*(0.175829739431834+-17.554581707422)
variable C6${dir} equal 0.5*(${C6neg}+${C6pos})
variable C63 equal 0.5*(${C6neg}+${C6pos})
variable C63 equal 0.5*(-0.191349784570555+${C6pos})
variable C63 equal 0.5*(-0.191349784570555+13.926802958383)

# Delete dir to make sure it is not reused

variable dir delete

# uyz Perturbation

variable dir equal 4
include displace.mod
# NOTE: This script should not need to be
# modified. See in.elastic for more info.
#
# Find which reference length to use

if "${dir} == 1" then    "variable len0 equal ${lx0}"
if "${dir} == 2" then    "variable len0 equal ${ly0}"
if "${dir} == 3" then    "variable len0 equal ${lz0}"
if "${dir} == 4" then    "variable len0 equal ${lz0}"
variable len0 equal ${lz0}
variable len0 equal 16.293
if "${dir} == 5" then    "variable len0 equal ${lz0}"
if "${dir} == 6" then    "variable len0 equal ${ly0}"

# Reset box and simulation parameters

clear
box tilt large
read_restart restart.equil
  triclinic box = (0 0 0) to (16.293 16.293 16.293) with tilt (0 0 0)
  1 by 1 by 1 MPI processor grid
  216 atoms
include potential.mod
# NOTE: This script can be modified for different pair styles
# See in.elastic for more info.

reset_timestep 0

# Choose potential
pair_style	sw
pair_coeff * * Si.sw Si
Reading potential file Si.sw with DATE: 2007-06-11

# Setup neighbor style
neighbor 1.0 nsq
neigh_modify once no every 1 delay 0 check yes

# Setup output

fix avp all ave/time  ${nevery} ${nrepeat} ${nfreq} c_thermo_press mode vector
fix avp all ave/time  10 ${nrepeat} ${nfreq} c_thermo_press mode vector
fix avp all ave/time  10 10 ${nfreq} c_thermo_press mode vector
fix avp all ave/time  10 10 100 c_thermo_press mode vector
thermo		${nthermo}
thermo		100
thermo_style custom step temp pe press f_avp[1] f_avp[2] f_avp[3] f_avp[4] f_avp[5] f_avp[6]
thermo_modify norm no

# Setup MD

timestep ${timestep}
timestep 0.001
fix 4 all nve
if "${thermostat} == 1" then    "fix 5 all langevin ${temp} ${temp} ${tdamp} ${seed}"
fix 5 all langevin ${temp} ${temp} ${tdamp} ${seed}
fix 5 all langevin 300 ${temp} ${tdamp} ${seed}
fix 5 all langevin 300 300 ${tdamp} ${seed}
fix 5 all langevin 300 300 0.01 ${seed}
fix 5 all langevin 300 300 0.01 123457



# Negative deformation

variable delta equal -${up}*${len0}
variable delta equal -0.02*${len0}
variable delta equal -0.02*16.293
variable deltaxy equal -${up}*xy
variable deltaxy equal -0.02*xy
variable deltaxz equal -${up}*xz
variable deltaxz equal -0.02*xz
variable deltayz equal -${up}*yz
variable deltayz equal -0.02*yz
if "${dir} == 1" then    "change_box all x delta 0 ${delta} xy delta ${deltaxy} xz delta ${deltaxz} remap units box"
if "${dir} == 2" then    "change_box all y delta 0 ${delta} yz delta ${deltayz} remap units box"
if "${dir} == 3" then    "change_box all z delta 0 ${delta} remap units box"
if "${dir} == 4" then    "change_box all yz delta ${delta} remap units box"
change_box all yz delta ${delta} remap units box
change_box all yz delta -0.32586 remap units box
  triclinic box = (0 0 0) to (16.293 16.293 16.293) with tilt (0 0 -0.32586)
if "${dir} == 5" then    "change_box all xz delta ${delta} remap units box"
if "${dir} == 6" then    "change_box all xy delta ${delta} remap units box"

# Run MD

run ${nequil}
run 1000
Neighbor list info ...
  1 neighbor list requests
  update every 1 steps, delay 0 steps, check yes
  max neighbors/atom: 2000, page size: 100000
  master list distance cutoff = 4.77118
  ghost atom cutoff = 4.77118
Memory usage per processor = 1.81279 Mbytes
Step Temp PotEng Press avp[1] avp[2] avp[3] avp[4] avp[5] avp[6] 
       0    311.03943    -926.8429    3957.3884            0            0            0            0            0            0 
     100    284.34381   -928.12746    3355.7671    3445.4763    3383.7791    3394.5803   -208.26857    1397.3861    12085.114 
     200    282.85563   -926.72413    3716.9353    3438.2723    3055.5718     3765.754   -640.26148    139.03066    11505.504 
     300    310.09603   -926.74239    3632.7911    3331.5889    3550.5629    3500.0834   -613.76124   -120.94554    10425.015 
     400    274.05063   -928.47877    3167.0259    3564.7952    3579.9775    3719.8018    374.63013   -194.34544    11225.667 
     500      289.583   -928.33362    3276.0749    3780.4463     3207.477    3629.9926   -24.167259    -18.24837    11270.722 
     600    309.38259   -928.15372    3613.3487    3643.0099    3419.1321    3681.7281    738.08965    520.10194    11155.508 
     700    302.39312    -928.0947    3381.3169    3610.8547    3446.7715    3630.8932   -1132.2201   -322.94702    10342.653 
     800    315.81038   -927.54792    3390.2273    3382.5254    3316.4621    3297.1394   -717.34427   -573.97003    10502.466 
     900    317.51626   -927.76767    3783.8832    3587.3972    3649.6542    3552.3042    -918.6818    1783.9724    11270.098 
    1000    283.50818    -928.0981    3213.4603    3456.2316    3304.1923    3699.5357   -1642.3378   -1185.8649    12390.567 
Loop time of 0.598222 on 1 procs for 1000 steps with 216 atoms

Performance: 144.428 ns/day, 0.166 hours/ns, 1671.620 timesteps/s
100.0% CPU use with 1 MPI tasks x no OpenMP threads

MPI task timing breakdown:
Section |  min time  |  avg time  |  max time  |%varavg| %total
---------------------------------------------------------------
Pair    | 0.58453    | 0.58453    | 0.58453    |   0.0 | 97.71
Neigh   | 0          | 0          | 0          |   0.0 |  0.00
Comm    | 0.0022378  | 0.0022378  | 0.0022378  |   0.0 |  0.37
Output  | 9.0122e-05 | 9.0122e-05 | 9.0122e-05 |   0.0 |  0.02
Modify  | 0.010305   | 0.010305   | 0.010305   |   0.0 |  1.72
Other   |            | 0.00106    |            |       |  0.18

Nlocal:    216 ave 216 max 216 min
Histogram: 1 0 0 0 0 0 0 0 0 0
Nghost:    648 ave 648 max 648 min
Histogram: 1 0 0 0 0 0 0 0 0 0
Neighs:    0 ave 0 max 0 min
Histogram: 1 0 0 0 0 0 0 0 0 0
FullNghs:  6044 ave 6044 max 6044 min
Histogram: 1 0 0 0 0 0 0 0 0 0

Total # of neighbors = 6044
Ave neighs/atom = 27.9815
Neighbor list builds = 0
Dangerous builds = 0
include potential.mod
# NOTE: This script can be modified for different pair styles
# See in.elastic for more info.

reset_timestep 0

# Choose potential
pair_style	sw
pair_coeff * * Si.sw Si
Reading potential file Si.sw with DATE: 2007-06-11

# Setup neighbor style
neighbor 1.0 nsq
[...]
Loop time of 0.177202 on 1 procs for 300 steps with 216 atoms

Performance: 146.274 ns/day, 0.164 hours/ns, 1692.983 timesteps/s
100.0% CPU use with 1 MPI tasks x no OpenMP threads

MPI task timing breakdown:
Section |  min time  |  avg time  |  max time  |%varavg| %total
---------------------------------------------------------------
Pair    | 0.17298    | 0.17298    | 0.17298    |   0.0 | 97.62
Neigh   | 0          | 0          | 0          |   0.0 |  0.00
Comm    | 0.00068593 | 0.00068593 | 0.00068593 |   0.0 |  0.39
Output  | 2.5988e-05 | 2.5988e-05 | 2.5988e-05 |   0.0 |  0.01
Modify  | 0.0031962  | 0.0031962  | 0.0031962  |   0.0 |  1.80
Other   |            | 0.0003135  |            |       |  0.18

Nlocal:    216 ave 216 max 216 min
Histogram: 1 0 0 0 0 0 0 0 0 0
Nghost:    648 ave 648 max 648 min
Histogram: 1 0 0 0 0 0 0 0 0 0
Neighs:    0 ave 0 max 0 min
Histogram: 1 0 0 0 0 0 0 0 0 0
FullNghs:  6042 ave 6042 max 6042 min
Histogram: 1 0 0 0 0 0 0 0 0 0

Total # of neighbors = 6042
Ave neighs/atom = 27.9722
Neighbor list builds = 0
Dangerous builds = 0

# Obtain new stress tensor

variable pxx1 equal f_avp[1]
variable pyy1 equal f_avp[2]
variable pzz1 equal f_avp[3]
variable pxy1 equal f_avp[4]
variable pxz1 equal f_avp[5]
variable pyz1 equal f_avp[6]

# Compute elastic constant from pressure tensor

variable C1neg equal ${d1}
variable C1neg equal -1.2242172782858
variable C2neg equal ${d2}
variable C2neg equal 0.157478271267951
variable C3neg equal ${d3}
variable C3neg equal -0.402468345909349
variable C4neg equal ${d4}
variable C4neg equal -0.0921064555460652
variable C5neg equal ${d5}
variable C5neg equal 0.00889467722338502
variable C6neg equal ${d6}
variable C6neg equal 55.1211772581595

# Reset box and simulation parameters

clear
box tilt large
read_restart restart.equil
  triclinic box = (0 0 0) to (16.293 16.293 16.293) with tilt (0 0 0)
  1 by 1 by 1 MPI processor grid
  216 atoms
include potential.mod
# NOTE: This script can be modified for different pair styles
# See in.elastic for more info.

reset_timestep 0

# Choose potential
pair_style	sw
pair_coeff * * Si.sw Si
Reading potential file Si.sw with DATE: 2007-06-11

# Setup neighbor style
neighbor 1.0 nsq
neigh_modify once no every 1 delay 0 check yes

# Setup output

fix avp all ave/time  ${nevery} ${nrepeat} ${nfreq} c_thermo_press mode vector
fix avp all ave/time  10 ${nrepeat} ${nfreq} c_thermo_press mode vector
fix avp all ave/time  10 10 ${nfreq} c_thermo_press mode vector
fix avp all ave/time  10 10 100 c_thermo_press mode vector
thermo		${nthermo}
thermo		100
thermo_style custom step temp pe press f_avp[1] f_avp[2] f_avp[3] f_avp[4] f_avp[5] f_avp[6]
thermo_modify norm no

# Setup MD

timestep ${timestep}
timestep 0.001
fix 4 all nve
if "${thermostat} == 1" then    "fix 5 all langevin ${temp} ${temp} ${tdamp} ${seed}"
fix 5 all langevin ${temp} ${temp} ${tdamp} ${seed}
fix 5 all langevin 300 ${temp} ${tdamp} ${seed}
fix 5 all langevin 300 300 ${tdamp} ${seed}
fix 5 all langevin 300 300 0.01 ${seed}
fix 5 all langevin 300 300 0.01 123457



# Positive deformation

variable delta equal ${up}*${len0}
variable delta equal 0.02*${len0}
variable delta equal 0.02*16.293
variable deltaxy equal ${up}*xy
variable deltaxy equal 0.02*xy
variable deltaxz equal ${up}*xz
variable deltaxz equal 0.02*xz
variable deltayz equal ${up}*yz
variable deltayz equal 0.02*yz
if "${dir} == 1" then    "change_box all x delta 0 ${delta} xy delta ${deltaxy} xz delta ${deltaxz} remap units box"
if "${dir} == 2" then    "change_box all y delta 0 ${delta} yz delta ${deltayz} remap units box"
if "${dir} == 3" then    "change_box all z delta 0 ${delta} remap units box"
if "${dir} == 4" then    "change_box all yz delta ${delta} remap units box"
if "${dir} == 5" then    "change_box all xz delta ${delta} remap units box"
if "${dir} == 6" then    "change_box all xy delta ${delta} remap units box"
change_box all xy delta ${delta} remap units box
change_box all xy delta 0.32586 remap units box
  triclinic box = (0 0 0) to (16.293 16.293 16.293) with tilt (0.32586 0 0)

# Run MD

run ${nequil}
run 1000
Neighbor list info ...
  1 neighbor list requests
  update every 1 steps, delay 0 steps, check yes
  max neighbors/atom: 2000, page size: 100000
  master list distance cutoff = 4.77118
  ghost atom cutoff = 4.77118
Memory usage per processor = 1.81279 Mbytes
Step Temp PotEng Press avp[1] avp[2] avp[3] avp[4] avp[5] avp[6] 
       0    311.03943   -926.64693    4045.7403            0            0            0            0            0            0 
     100    284.15344   -928.10654      3283.97    3222.5233     3701.341    3276.9563   -11594.223    1394.8077    655.60918 
     200    282.88623   -926.71467    3695.0704    3199.2446    3365.2924    3675.8169   -11678.126    173.66732    463.45996 
     300     310.1545   -926.75064    3646.7965     3178.938     3839.726    3417.5529   -11628.068   -102.69962   -566.89514 
     400    274.19981   -928.48347    3151.3839    3402.0576    3859.9151     3570.501    -10657.16   -211.29368     207.7401 
     500    289.68321   -928.33172    3330.1793    3583.9966    3506.6325    3521.7375   -11056.061   -22.568703    239.06705 
     600    309.57348   -928.15827    3587.7192    3482.6652    3695.2891     3527.227   -10323.699     481.7123    72.826997 
     700     302.6146   -928.09789    3444.6259     3436.108    3763.9751    3562.9343   -12179.761    -258.2772   -669.34107 
     800    315.85829   -927.53643    3489.5497    3232.3602    3615.9471    3183.3438   -11755.369   -529.58105   -502.94886 
     900    317.47555    -927.7688    3746.8586    3395.4887    3974.0011    3453.3123   -11965.587    1843.4308    152.10968 
    1000    283.33682   -928.10207    3210.0345    3186.7149    3658.7619    3622.8555   -12664.216   -1114.6523    1414.1816 
Loop time of 0.600149 on 1 procs for 1000 steps with 216 atoms

Performance: 143.964 ns/day, 0.167 hours/ns, 1666.253 timesteps/s
100.0% CPU use with 1 MPI tasks x no OpenMP threads

MPI task timing breakdown:
Section |  min time  |  avg time  |  max time  |%varavg| %total
---------------------------------------------------------------
Pair    | 0.58595    | 0.58595    | 0.58595    |   0.0 | 97.63
Neigh   | 0          | 0          | 0          |   0.0 |  0.00
Comm    | 0.0022621  | 0.0022621  | 0.0022621  |   0.0 |  0.38
Output  | 0.0001111  | 0.0001111  | 0.0001111  |   0.0 |  0.02
Modify  | 0.010714   | 0.010714   | 0.010714   |   0.0 |  1.79
Other   |            | 0.001107   |            |       |  0.18

Nlocal:    216 ave 216 max 216 min
Histogram: 1 0 0 0 0 0 0 0 0 0
Nghost:    648 ave 648 max 648 min
Histogram: 1 0 0 0 0 0 0 0 0 0
Neighs:    0 ave 0 max 0 min
Histogram: 1 0 0 0 0 0 0 0 0 0
FullNghs:  6040 ave 6040 max 6040 min
Histogram: 1 0 0 0 0 0 0 0 0 0

Total # of neighbors = 6040
Ave neighs/atom = 27.963
Neighbor list builds = 0
Dangerous builds = 0
include potential.mod
# NOTE: This script can be modified for different pair styles
# See in.elastic for more info.

reset_timestep 0

# Choose potential
pair_style	sw
pair_coeff * * Si.sw Si
Reading potential file Si.sw with DATE: 2007-06-11

# Setup neighbor style
neighbor 1.0 nsq
neigh_modify once no every 1 delay 0 check yes

# Setup output

fix avp all ave/time  ${nevery} ${nrepeat} ${nfreq} c_thermo_press mode vector
fix avp all ave/time  10 ${nrepeat} ${nfreq} c_thermo_press mode vector
fix avp all ave/time  10 10 ${nfreq} c_thermo_press mode vector
fix avp all ave/time  10 10 100 c_thermo_press mode vector
thermo		${nthermo}
thermo		100
thermo_style custom step temp pe press f_avp[1] f_avp[2] f_avp[3] f_avp[4] f_avp[5] f_avp[6]
WARNING: New thermo_style command, previous thermo_modify settings will be lost (../output.cpp:680)
thermo_modify norm no

# Setup MD

timestep ${timestep}
timestep 0.001
fix 4 all nve
if "${thermostat} == 1" then    "fix 5 all langevin ${temp} ${temp} ${tdamp} ${seed}"
fix 5 all langevin ${temp} ${temp} ${tdamp} ${seed}
fix 5 all langevin 300 ${temp} ${tdamp} ${seed}
fix 5 all langevin 300 300 ${tdamp} ${seed}
fix 5 all langevin 300 300 0.01 ${seed}
fix 5 all langevin 300 300 0.01 123457


run ${nrun}
run 300
Memory usage per processor = 1.81279 Mbytes
Step Temp PotEng Press avp[1] avp[2] avp[3] avp[4] avp[5] avp[6] 
       0    283.33682   -928.10207    3210.0345            0            0            0            0            0            0 
     100    284.26986   -928.30419    3334.0706    3075.8642    3636.6012     3302.478   -11311.823    1257.9018    472.60184 
     200    283.54487   -927.03117    3756.3719    3243.1119    3446.6113    3707.4076    -11565.51    116.90339    360.35286 
     300    311.02034   -927.11646     3758.758    3302.7461    3898.7533    3496.9001     -11577.1   -122.34364   -582.48284 
Loop time of 0.179759 on 1 procs for 300 steps with 216 atoms

Performance: 144.193 ns/day, 0.166 hours/ns, 1668.901 timesteps/s
100.0% CPU use with 1 MPI tasks x no OpenMP threads

MPI task timing breakdown:
Section |  min time  |  avg time  |  max time  |%varavg| %total
---------------------------------------------------------------
Pair    | 0.17548    | 0.17548    | 0.17548    |   0.0 | 97.62
Neigh   | 0          | 0          | 0          |   0.0 |  0.00
Comm    | 0.00068069 | 0.00068069 | 0.00068069 |   0.0 |  0.38
Output  | 3.2902e-05 | 3.2902e-05 | 3.2902e-05 |   0.0 |  0.02
Modify  | 0.003233   | 0.003233   | 0.003233   |   0.0 |  1.80
Other   |            | 0.0003324  |            |       |  0.18

Nlocal:    216 ave 216 max 216 min
Histogram: 1 0 0 0 0 0 0 0 0 0
Nghost:    648 ave 648 max 648 min
Histogram: 1 0 0 0 0 0 0 0 0 0
Neighs:    0 ave 0 max 0 min
Histogram: 1 0 0 0 0 0 0 0 0 0
FullNghs:  6042 ave 6042 max 6042 min
Histogram: 1 0 0 0 0 0 0 0 0 0

Total # of neighbors = 6042
Ave neighs/atom = 27.9722
Neighbor list builds = 0
Dangerous builds = 0

# Obtain new stress tensor

variable tmp equal pe
variable e1 equal ${tmp}
variable e1 equal -927.116457944535
variable tmp equal press
variable p1 equal ${tmp}
variable p1 equal 3758.75801266099
variable tmp equal pxx
variable pxx1 equal ${tmp}
variable pxx1 equal 2977.15580374606
variable tmp equal pyy
variable pyy1 equal ${tmp}
variable pyy1 equal 4090.18824921047
variable tmp equal pzz
variable pzz1 equal ${tmp}
variable pzz1 equal 4208.92998502646
variable tmp equal pxy
variable pxy1 equal ${tmp}
variable pxy1 equal -14444.3333843559
variable tmp equal pxz
variable pxz1 equal ${tmp}
variable pxz1 equal 3521.07930833982
variable tmp equal pyz
variable pyz1 equal ${tmp}
variable pyz1 equal -412.08069307006

# Compute elastic constant from pressure tensor

variable C1pos equal ${d1}
variable C1pos equal 2.81865542527865
variable C2pos equal ${d2}
variable C2pos equal -1.3484636113139
variable C3pos equal ${d3}
variable C3pos equal -3.37472698212565
variable C4pos equal ${d4}
variable C4pos equal -0.93984285132527
variable C5pos equal ${d5}
variable C5pos equal -18.1949666383897
variable C6pos equal ${d6}
variable C6pos equal 69.499201913134

# Combine positive and negative

variable C1${dir} equal 0.5*(${C1neg}+${C1pos})
variable C16 equal 0.5*(${C1neg}+${C1pos})
variable C16 equal 0.5*(-1.2242172782858+${C1pos})
variable C16 equal 0.5*(-1.2242172782858+2.81865542527865)
variable C2${dir} equal 0.5*(${C2neg}+${C2pos})
variable C26 equal 0.5*(${C2neg}+${C2pos})
variable C26 equal 0.5*(0.157478271267951+${C2pos})
variable C26 equal 0.5*(0.157478271267951+-1.3484636113139)
variable C3${dir} equal 0.5*(${C3neg}+${C3pos})
variable C36 equal 0.5*(${C3neg}+${C3pos})
variable C36 equal 0.5*(-0.402468345909349+${C3pos})
variable C36 equal 0.5*(-0.402468345909349+-3.37472698212565)
variable C4${dir} equal 0.5*(${C4neg}+${C4pos})
variable C46 equal 0.5*(${C4neg}+${C4pos})
variable C46 equal 0.5*(-0.0921064555460652+${C4pos})
variable C46 equal 0.5*(-0.0921064555460652+-0.93984285132527)
variable C5${dir} equal 0.5*(${C5neg}+${C5pos})
variable C56 equal 0.5*(${C5neg}+${C5pos})
variable C56 equal 0.5*(0.00889467722338502+${C5pos})
variable C56 equal 0.5*(0.00889467722338502+-18.1949666383897)
variable C6${dir} equal 0.5*(${C6neg}+${C6pos})
variable C66 equal 0.5*(${C6neg}+${C6pos})
variable C66 equal 0.5*(55.1211772581595+${C6pos})
variable C66 equal 0.5*(55.1211772581595+69.499201913134)

# Delete dir to make sure it is not reused

variable dir delete

# Output final values

variable C11all equal ${C11}
variable C11all equal 150.448355330911
variable C22all equal ${C22}
variable C22all equal 149.582393936588
variable C33all equal ${C33}
variable C33all equal 148.22801447405

variable C12all equal 0.5*(${C12}+${C21})
variable C12all equal 0.5*(78.035439075031+${C21})
variable C12all equal 0.5*(78.035439075031+77.1605835710123)
variable C13all equal 0.5*(${C13}+${C31})
variable C13all equal 0.5*(78.0504242101335+${C31})
variable C13all equal 0.5*(78.0504242101335+75.9087164984838)
variable C23all equal 0.5*(${C23}+${C32})
variable C23all equal 0.5*(77.0192953519993+${C32})
variable C23all equal 0.5*(77.0192953519993+75.7384194296348)

variable C44all equal ${C44}
variable C44all equal 54.1796898894527
variable C55all equal ${C55}
variable C55all equal 45.9106705735174
variable C66all equal ${C66}
variable C66all equal 62.3101895856468

variable C14all equal 0.5*(${C14}+${C41})
variable C14all equal 0.5*(0.5307275048254+${C41})
variable C14all equal 0.5*(0.5307275048254+-0.934170267028205)
variable C15all equal 0.5*(${C15}+${C51})
variable C15all equal 0.5*(0.5370926181448+${C51})
variable C15all equal 0.5*(0.5370926181448+-8.74777516124012)
variable C16all equal 0.5*(${C16}+${C61})
variable C16all equal 0.5*(0.797219073496425+${C61})
variable C16all equal 0.5*(0.797219073496425+6.96940837344427)

variable C24all equal 0.5*(${C24}+${C42})
variable C24all equal 0.5*(-0.068205669399225+${C42})
variable C24all equal 0.5*(-0.068205669399225+-0.75379652877473)
variable C25all equal 0.5*(${C25}+${C52})
variable C25all equal 0.5*(-0.01718060164515+${C52})
variable C25all equal 0.5*(-0.01718060164515+-8.59261879431962)
variable C26all equal 0.5*(${C26}+${C62})
variable C26all equal 0.5*(-0.595492670022974+${C62})
variable C26all equal 0.5*(-0.595492670022974+6.97266921243083)

variable C34all equal 0.5*(${C34}+${C43})
variable C34all equal 0.5*(-1.41540258556472+${C43})
variable C34all equal 0.5*(-1.41540258556472+-0.76424652089782)
variable C35all equal 0.5*(${C35}+${C53})
variable C35all equal 0.5*(-1.3213613040453+${C53})
variable C35all equal 0.5*(-1.3213613040453+-8.68937598399508)
variable C36all equal 0.5*(${C36}+${C63})
variable C36all equal 0.5*(-1.8885976640175+${C63})
variable C36all equal 0.5*(-1.8885976640175+6.86772658690622)

variable C45all equal 0.5*(${C45}+${C54})
variable C45all equal 0.5*(-1.26695858766427+${C54})
variable C45all equal 0.5*(-1.26695858766427+-9.64497660804427)
variable C46all equal 0.5*(${C46}+${C64})
variable C46all equal 0.5*(-0.515974653435668+${C64})
variable C46all equal 0.5*(-0.515974653435668+7.22317430932555)
variable C56all equal 0.5*(${C56}+${C65})
variable C56all equal 0.5*(-9.09303598058316+${C65})
variable C56all equal 0.5*(-9.09303598058316+7.26871262190521)

# Average moduli for cubic crystals

variable C11cubic equal (${C11all}+${C22all}+${C33all})/3.0
variable C11cubic equal (150.448355330911+${C22all}+${C33all})/3.0
variable C11cubic equal (150.448355330911+149.582393936588+${C33all})/3.0
variable C11cubic equal (150.448355330911+149.582393936588+148.22801447405)/3.0
variable C12cubic equal (${C12all}+${C13all}+${C23all})/3.0
variable C12cubic equal (77.5980113230216+${C13all}+${C23all})/3.0
variable C12cubic equal (77.5980113230216+76.9795703543086+${C23all})/3.0
variable C12cubic equal (77.5980113230216+76.9795703543086+76.378857390817)/3.0
variable C44cubic equal (${C44all}+${C55all}+${C66all})/3.0
variable C44cubic equal (54.1796898894527+${C55all}+${C66all})/3.0
variable C44cubic equal (54.1796898894527+45.9106705735174+${C66all})/3.0
variable C44cubic equal (54.1796898894527+45.9106705735174+62.3101895856468)/3.0

variable bulkmodulus equal (${C11cubic}+2*${C12cubic})/3.0
variable bulkmodulus equal (149.41958791385+2*${C12cubic})/3.0
variable bulkmodulus equal (149.41958791385+2*76.9854796893824)/3.0
variable shearmodulus1 equal ${C44cubic}
variable shearmodulus1 equal 54.1335166828723
variable shearmodulus2 equal (${C11cubic}-${C12cubic})/2.0
variable shearmodulus2 equal (149.41958791385-${C12cubic})/2.0
variable shearmodulus2 equal (149.41958791385-76.9854796893824)/2.0
variable poissonratio equal 1.0/(1.0+${C11cubic}/${C12cubic})
variable poissonratio equal 1.0/(1.0+149.41958791385/${C12cubic})
variable poissonratio equal 1.0/(1.0+149.41958791385/76.9854796893824)

# For Stillinger-Weber silicon, the analytical results
# are known to be (E. R. Cowley, 1988):
#               C11 = 151.4 GPa
#               C12 = 76.4 GPa
#               C44 = 56.4 GPa

print "========================================="
=========================================
print "Components of the Elastic Constant Tensor"
Components of the Elastic Constant Tensor
print "========================================="
=========================================

print "Elastic Constant C11all = ${C11all} ${cunits}"
Elastic Constant C11all = 150.448355330911 GPa
print "Elastic Constant C22all = ${C22all} ${cunits}"
Elastic Constant C22all = 149.582393936588 GPa
print "Elastic Constant C33all = ${C33all} ${cunits}"
Elastic Constant C33all = 148.22801447405 GPa

print "Elastic Constant C12all = ${C12all} ${cunits}"
Elastic Constant C12all = 77.5980113230216 GPa
print "Elastic Constant C13all = ${C13all} ${cunits}"
Elastic Constant C13all = 76.9795703543086 GPa
print "Elastic Constant C23all = ${C23all} ${cunits}"
Elastic Constant C23all = 76.378857390817 GPa

print "Elastic Constant C44all = ${C44all} ${cunits}"
Elastic Constant C44all = 54.1796898894527 GPa
print "Elastic Constant C55all = ${C55all} ${cunits}"
Elastic Constant C55all = 45.9106705735174 GPa
print "Elastic Constant C66all = ${C66all} ${cunits}"
Elastic Constant C66all = 62.3101895856468 GPa

print "Elastic Constant C14all = ${C14all} ${cunits}"
Elastic Constant C14all = -0.201721381101403 GPa
print "Elastic Constant C15all = ${C15all} ${cunits}"
Elastic Constant C15all = -4.10534127154766 GPa
print "Elastic Constant C16all = ${C16all} ${cunits}"
Elastic Constant C16all = 3.88331372347035 GPa

print "Elastic Constant C24all = ${C24all} ${cunits}"
Elastic Constant C24all = -0.411001099086978 GPa
print "Elastic Constant C25all = ${C25all} ${cunits}"
Elastic Constant C25all = -4.30489969798238 GPa
print "Elastic Constant C26all = ${C26all} ${cunits}"
Elastic Constant C26all = 3.18858827120393 GPa

print "Elastic Constant C34all = ${C34all} ${cunits}"
Elastic Constant C34all = -1.08982455323127 GPa
print "Elastic Constant C35all = ${C35all} ${cunits}"
Elastic Constant C35all = -5.00536864402019 GPa
print "Elastic Constant C36all = ${C36all} ${cunits}"
Elastic Constant C36all = 2.48956446144436 GPa

print "Elastic Constant C45all = ${C45all} ${cunits}"
Elastic Constant C45all = -5.45596759785427 GPa
print "Elastic Constant C46all = ${C46all} ${cunits}"
Elastic Constant C46all = 3.35359982794494 GPa
print "Elastic Constant C56all = ${C56all} ${cunits}"
Elastic Constant C56all = -0.912161679338975 GPa

print "========================================="
=========================================
print "Average properties for a cubic crystal"
Average properties for a cubic crystal
print "========================================="
=========================================

print "Bulk Modulus = ${bulkmodulus} ${cunits}"
Bulk Modulus = 101.130182430872 GPa
print "Shear Modulus 1 = ${shearmodulus1} ${cunits}"
Shear Modulus 1 = 54.1335166828723 GPa
print "Shear Modulus 2 = ${shearmodulus2} ${cunits}"
Shear Modulus 2 = 36.2170541122338 GPa
print "Poisson Ratio = ${poissonratio}"
Poisson Ratio = 0.34003426029446
Total wall time: 0:00:10
